 vasp.5.4.4.18Apr17-6-g9f103f2a35 (build Jun 22 2020 09:27:21) complex           
 executed on tx2_gcc-7.3_libsci-1 date 2021.10.12  02:54:17
 running on   64 total cores
 distrk:  each k-point on   64 cores,    1 groups
 distr:  one band on NCORES_PER_BAND=   8 cores,    8 groups


--------------------------------------------------------------------------------------------------------


 INCAR:
 POTCAR:    PAW_PBE Cs_sv 08Apr2002               
 POTCAR:    PAW_PBE Pb_d 06Sep2000                
 POTCAR:    PAW_PBE Br 06Sep2000                  
 POTCAR:    PAW_PBE Cs_sv 08Apr2002               
   SHA256 =  c1463496f0f6037ed62c6012a8013a89ee9ad6ffb38599dcd6c079e7ed31779b Cs
   COPYR  = (c) Copyright 08Apr2002 Georg Kresse                                
   COPYR  = This file is part of the software VASP. Any use, copying, and all ot
   COPYR  = If you do not have a valid VASP license, you may not use, copy or di
   VRHFIN =Cs: 5s5p6s                                                           
   LEXCH  = PE                                                                  
   EATOM  =   555.6835 eV,   40.8416 Ry                                         
                                                                                
   TITEL  = PAW_PBE Cs_sv 08Apr2002                                             
   LULTRA =        F    use ultrasoft PP ?                                      
   IUNSCR =        1    unscreen: 0-lin 1-nonlin 2-no                           
   RPACOR =    2.200    partial core radius                                     
   POMASS =  132.900; ZVAL   =    9.000    mass and valenz                      
   RCORE  =    2.500    outmost cutoff radius                                   
   RWIGS  =    2.500; RWIGS  =    1.323    wigner-seitz radius (au A)           
   ENMAX  =  220.318; ENMIN  =  165.238 eV                                      
   RCLOC  =    2.207    cutoff for local pot                                    
   LCOR   =        T    correct aug charges                                     
   LPAW   =        T    paw PP                                                  
   EAUG   =  407.933                                                            
   DEXC   =    0.000                                                            
   RMAX   =    2.554    core radius for proj-oper                               
   RAUG   =    1.300    factor for augmentation sphere                          
   RDEP   =    2.590    radius for radial grids                                 
   RDEPT  =    2.117    core radius for aug-charge                              
                                                                                
   Atomic configuration                                                         
   13 entries                                                                   
     n  l   j            E        occ.                                          
     1  0  0.50    -35790.1377   2.0000                                         
     2  0  0.50     -5613.6201   2.0000                                         
     2  1  1.50     -5035.0101   6.0000                                         
     3  0  0.50     -1167.0767   2.0000                                         
     3  1  1.50      -980.9754   6.0000                                         
     3  2  2.50      -708.0703  10.0000                                         
     4  0  0.50      -220.2386   2.0000                                         
     4  1  1.50      -160.7596   6.0000                                         
     4  2  2.50       -74.2354  10.0000                                         
     5  0  0.50       -26.7287   2.0000                                         
     6  0  0.50        -2.0862   1.0000                                         
     5  1  1.50       -13.5159   6.0000                                         
     5  2  2.50        -0.4136   0.0000                                         
   Description                                                                  
     l       E           TYP  RCUT    TYP  RCUT                                 
     0    -26.7287425     23  1.900                                             
     0     -2.0862306     23  1.900                                             
     1    -13.5158719     23  2.500                                             
     1     -2.7211652     23  2.500                                             
     2     -0.4136171     23  2.500                                             
  local pseudopotential read in
  partial core-charges read in
  partial kinetic energy density read in
  atomic valenz-charges read in
  non local Contribution for L=           0  read in
    real space projection operators read in
  non local Contribution for L=           0  read in
    real space projection operators read in
  non local Contribution for L=           1  read in
    real space projection operators read in
  non local Contribution for L=           1  read in
    real space projection operators read in
  non local Contribution for L=           2  read in
    real space projection operators read in
    PAW grid and wavefunctions read in

   number of l-projection  operators is LMAX  =           5
   number of lm-projection operators is LMMAX =          13

 POTCAR:    PAW_PBE Pb_d 06Sep2000                
   SHA256 =  fb885b08f0fba73a15f6a6b0e39bd200c13ec96ef97cf3ecd8e63bade5137abd Pb
   COPYR  = (c) Copyright 06Sep2000 Georg Kresse                                
   COPYR  = This file is part of the software VASP. Any use, copying, and all ot
   COPYR  = If you do not have a valid VASP license, you may not use, copy or di
   VRHFIN =Pb:                                                                  
   LEXCH  = PE                                                                  
   EATOM  =  1661.6185 eV,  122.1255 Ry                                         
                                                                                
   TITEL  = PAW_PBE Pb_d 06Sep2000                                              
   LULTRA =        F    use ultrasoft PP ?                                      
   IUNSCR =        1    unscreen: 0-lin 1-nonlin 2-no                           
   RPACOR =    2.200    partial core radius                                     
   POMASS =  207.200; ZVAL   =   14.000    mass and valenz                      
   RCORE  =    2.500    outmost cutoff radius                                   
   RWIGS  =    3.260; RWIGS  =    1.725    wigner-seitz radius (au A)           
   ENMAX  =  237.835; ENMIN  =  178.376 eV                                      
   ICORE  =        3    local potential                                         
   LCOR   =        T    correct aug charges                                     
   LPAW   =        T    paw PP                                                  
   EAUG   =  391.914                                                            
   DEXC   =    0.000                                                            
   RMAX   =    2.565    core radius for proj-oper                               
   RAUG   =    1.300    factor for augmentation sphere                          
   RDEP   =    2.643    radius for radial grids                                 
   RDEPT  =    2.092    core radius for aug-charge                              
                                                                                
   Atomic configuration                                                         
   16 entries                                                                   
     n  l   j            E        occ.                                          
     1  0  0.50    -88091.8466   2.0000                                         
     2  0  0.50    -15753.4197   2.0000                                         
     2  1  1.50    -13508.1797   6.0000                                         
     3  0  0.50     -3781.7194   2.0000                                         
     3  1  1.50     -3138.2529   6.0000                                         
     3  2  2.50     -2483.2977  10.0000                                         
     4  0  0.50      -856.2895   2.0000                                         
     4  1  1.50      -645.4942   6.0000                                         
     4  2  2.50      -401.8768  10.0000                                         
     4  3  3.50      -132.9059  14.0000                                         
     5  0  0.50      -144.0950   2.0000                                         
     5  1  1.50       -85.7879   6.0000                                         
     5  2  2.50       -21.1769  10.0000                                         
     6  0  0.50       -12.0372   2.0000                                         
     6  1  1.50        -3.4971   2.0000                                         
     5  3  2.50        -2.7212   0.0000                                         
   Description                                                                  
     l       E           TYP  RCUT    TYP  RCUT                                 
     2    -21.1768523     23  2.500                                             
     2      1.3605826     23  2.500                                             
     0    -12.0371562     23  2.500                                             
     0     13.6058260     23  2.500                                             
     1     -3.4971339     23  2.500                                             
     1     13.6058260     23  2.500                                             
     3     -1.3605826      7  2.500                                             
  local pseudopotential read in
  partial core-charges read in
  partial kinetic energy density read in
  atomic valenz-charges read in
  non local Contribution for L=           2  read in
    real space projection operators read in
  non local Contribution for L=           2  read in
    real space projection operators read in
  non local Contribution for L=           0  read in
    real space projection operators read in
  non local Contribution for L=           0  read in
    real space projection operators read in
  non local Contribution for L=           1  read in
    real space projection operators read in
  non local Contribution for L=           1  read in
    real space projection operators read in
    PAW grid and wavefunctions read in

   number of l-projection  operators is LMAX  =           6
   number of lm-projection operators is LMMAX =          18

 POTCAR:    PAW_PBE Br 06Sep2000                  
   SHA256 =  96a73d2954943bbee26f4990d676cc6c3bf44b8dd2c75cd4b3b825d8403f0103 Br
   COPYR  = (c) Copyright 06Sep2000 Georg Kresse                                
   COPYR  = This file is part of the software VASP. Any use, copying, and all ot
   COPYR  = If you do not have a valid VASP license, you may not use, copy or di
   VRHFIN =Br: s2p5                                                             
   LEXCH  = PE                                                                  
   EATOM  =   368.4488 eV,   27.0802 Ry                                         
                                                                                
   TITEL  = PAW_PBE Br 06Sep2000                                                
   LULTRA =        F    use ultrasoft PP ?                                      
   IUNSCR =        1    unscreen: 0-lin 1-nonlin 2-no                           
   RPACOR =    1.900    partial core radius                                     
   POMASS =   79.904; ZVAL   =    7.000    mass and valenz                      
   RCORE  =    2.100    outmost cutoff radius                                   
   RWIGS  =    2.200; RWIGS  =    1.164    wigner-seitz radius (au A)           
   ENMAX  =  216.285; ENMIN  =  162.214 eV                                      
   ICORE  =        3    local potential                                         
   LCOR   =        T    correct aug charges                                     
   LPAW   =        T    paw PP                                                  
   EAUG   =  503.852                                                            
   DEXC   =    0.000                                                            
   RMAX   =    2.139    core radius for proj-oper                               
   RAUG   =    1.300    factor for augmentation sphere                          
   RDEP   =    2.186    radius for radial grids                                 
   RDEPT  =    1.890    core radius for aug-charge                              
                                                                                
   Atomic configuration                                                         
   10 entries                                                                   
     n  l   j            E        occ.                                          
     1  0  0.50    -13316.2796   2.0000                                         
     2  0  0.50     -1732.8239   2.0000                                         
     2  1  1.50     -1528.2193   6.0000                                         
     3  0  0.50      -238.0460   2.0000                                         
     3  1  1.50      -173.4609   6.0000                                         
     3  2  2.50       -66.7132  10.0000                                         
     4  0  0.50       -20.1334   2.0000                                         
     4  1  0.50        -7.8591   5.0000                                         
     4  2  2.50        -8.1635   0.0000                                         
     4  3  2.50        -8.1635   0.0000                                         
   Description                                                                  
     l       E           TYP  RCUT    TYP  RCUT                                 
     0    -20.1333652     23  2.100                                             
     0    -21.4939478     23  2.100                                             
     1     -7.8591052     23  2.100                                             
     1     -3.1608434     23  2.100                                             
     2     -8.1634956     23  2.100                                             
     3     -1.3605826      7  2.100                                             
  local pseudopotential read in
  partial core-charges read in
  partial kinetic energy density read in
  atomic valenz-charges read in
  non local Contribution for L=           0  read in
    real space projection operators read in
  non local Contribution for L=           0  read in
    real space projection operators read in
  non local Contribution for L=           1  read in
    real space projection operators read in
  non local Contribution for L=           1  read in
    real space projection operators read in
  non local Contribution for L=           2  read in
    real space projection operators read in
    PAW grid and wavefunctions read in

   number of l-projection  operators is LMAX  =           5
   number of lm-projection operators is LMMAX =          13

 Optimization of the real space projectors (new method)

 maximal supplied QI-value         = 15.12
 optimisation between [QCUT,QGAM] = [  8.77, 17.69] = [ 21.53, 87.61] Ry 
 Optimized for a Real-space Cutoff    1.85 Angstroem

   l    n(q)    QCUT    max X(q) W(low)/X(q) W(high)/X(q)  e(spline) 
   0     10     8.768    25.322    0.81E-04    0.51E-04    0.48E-06
   0     10     8.768    99.187    0.78E-04    0.50E-04    0.47E-06
   1      9     8.768    11.761    0.21E-03    0.20E-03    0.37E-06
   1      9     8.768     8.275    0.24E-03    0.22E-03    0.41E-06
   2      9     8.768     3.829    0.23E-04    0.15E-03    0.18E-06
 Optimization of the real space projectors (new method)

 maximal supplied QI-value         = 15.12
 optimisation between [QCUT,QGAM] = [  8.77, 17.69] = [ 21.53, 87.61] Ry 
 Optimized for a Real-space Cutoff    1.59 Angstroem

   l    n(q)    QCUT    max X(q) W(low)/X(q) W(high)/X(q)  e(spline) 
   2      7     8.768     3.846    0.48E-04    0.11E-03    0.11E-06
   2      7     8.768     8.593    0.20E-03    0.22E-04    0.24E-06
   0      8     8.768    20.082    0.68E-04    0.88E-04    0.41E-07
   0      8     8.768     8.597    0.89E-04    0.13E-03    0.59E-07
   1      8     8.768    33.223    0.15E-03    0.53E-04    0.87E-07
   1      8     8.768    15.899    0.14E-03    0.44E-04    0.78E-07
 Optimization of the real space projectors (new method)

 maximal supplied QI-value         = 17.95
 optimisation between [QCUT,QGAM] = [  8.80, 17.59] = [ 21.67, 86.68] Ry 
 Optimized for a Real-space Cutoff    1.59 Angstroem

   l    n(q)    QCUT    max X(q) W(low)/X(q) W(high)/X(q)  e(spline) 
   0      8     8.797   175.082    0.82E-04    0.14E-03    0.89E-07
   0      8     8.797   174.004    0.79E-04    0.14E-03    0.86E-07
   1      8     8.797    54.315    0.16E-03    0.14E-04    0.30E-06
   1      8     8.797    42.441    0.16E-03    0.14E-04    0.30E-06
   2      7     8.797     3.596    0.92E-04    0.15E-03    0.85E-07
  PAW_PBE Cs_sv 08Apr2002               :
 energy of atom  1       EATOM= -555.6835
 kinetic energy error for atom=    0.0069 (will be added to EATOM!!)
  PAW_PBE Pb_d 06Sep2000                :
 energy of atom  2       EATOM=-1661.6185
 kinetic energy error for atom=    0.0498 (will be added to EATOM!!)
  PAW_PBE Br 06Sep2000                  :
 energy of atom  3       EATOM= -368.4488
 kinetic energy error for atom=    0.0072 (will be added to EATOM!!)


 POSCAR: Cs8 Pb8 Br23                            
  positions in direct lattice
  No initial velocities read in

 METAGGA = SCAN     LMAXTAU =  6    LMIXTAU =  F

 exchange correlation table for  LEXCH =        8
   RHO(1)=    0.500       N(1)  =     2000
   RHO(2)=  100.500       N(2)  =     4000

 VTST: version 3.2, (02/03/18)

 CHAIN: initializing optimizer
 
 OPT: Using VASP Conjugate-Gradient optimizer
 CHAIN: Read ICHAIN            0

 POSCAR: Cs8 Pb8 Br23                            
  positions in direct lattice
  No initial velocities read in



--------------------------------------------------------------------------------------------------------


 ion  position               nearest neighbor table
   1  0.266  0.247  0.198-
   2  0.777  0.245  0.715-
   3  0.720  0.753  0.264-
   4  0.201  0.755  0.778-
   5  0.291  0.238  0.745-
   6  0.793  0.248  0.225-
   7  0.735  0.749  0.807-
   8  0.225  0.754  0.263-
   9  0.996  0.001  1.000-  19 2.96  21 2.97  32 2.98  30 2.99  35 3.00  29 3.01
  10  0.495  0.004  0.500-  20 2.90  34 2.97  28 2.99  31 2.99  33 2.99
  11  0.500  0.997  0.000-  30 2.96  17 2.97  22 2.98  32 3.00  34 3.02  28 3.02
  12  0.000  0.004  0.500-  31 2.98  18 2.99  29 2.99  35 3.01  23 3.02  33 3.06
  13  0.500  0.498  0.000-  22 2.98  17 2.98  36 2.99  26 3.00  24 3.00  37 3.06
  14  0.004  0.504  0.500-  25 2.88  23 2.96  18 2.98  27 2.99  38 3.00
  15  1.000  0.499  1.000-  19 2.96  21 2.96  24 3.00  36 3.01  27 3.02  38 3.02
  16  0.512  0.488  0.498-  39 2.59  37 2.95  20 2.97  26 3.00  25 3.01
  17  0.469  0.748  0.963-  11 2.97  13 2.98
  18  0.980  0.753  0.459-  14 2.98  12 2.99
  19  0.971  0.250  0.969-   9 2.96  15 2.96
  20  0.445  0.244  0.472-  10 2.90  16 2.97
  21  0.014  0.750  0.026-  15 2.96   9 2.97
  22  0.526  0.248  0.034-  13 2.98  11 2.98
  23  0.035  0.256  0.541-  14 2.96  12 3.02
  24  0.247  0.471  0.947-  15 3.00  13 3.00
  25  0.762  0.475  0.447-  14 2.88  16 3.01
  26  0.455  0.533  0.249-  16 3.00  13 3.00
  27  0.950  0.535  0.746-  14 2.99  15 3.02
  28  0.552  0.028  0.751-  10 2.99  11 3.02
  29  0.047  0.036  0.252-  12 2.99   9 3.01
  30  0.750  0.971  0.052-  11 2.96   9 2.99
  31  0.250  0.970  0.556-  12 2.98  10 2.99
  32  0.246  0.022  0.958-   9 2.98  11 3.00
  33  0.742  0.037  0.453-  10 2.99  12 3.06
  34  0.456  0.960  0.250-  10 2.97  11 3.02
  35  0.948  0.966  0.747-   9 3.00  12 3.01
  36  0.752  0.527  0.052-  13 2.99  15 3.01
  37  0.552  0.462  0.748-  16 2.95  13 3.06
  38  0.056  0.468  0.254-  14 3.00  15 3.02
  39  0.376  0.657  0.536-  16 2.59


IMPORTANT INFORMATION: All symmetrisations will be switched off!
NOSYMM: (Re-)initialisation of all symmetry stuff for point group C_1.



 KPOINTS: 1x1x1                                   

Automatic generation of k-mesh.
Space group operators:
 irot       det(A)        alpha          n_x          n_y          n_z        tau_x        tau_y        tau_z
    1     1.000000     0.000001     1.000000     0.000000     0.000000     0.000000     0.000000     0.000000
 
 Subroutine IBZKPT returns following result:
 ===========================================
 
 Found      8 irreducible k-points:
 
 Following reciprocal coordinates:
            Coordinates               Weight
  0.000000  0.000000  0.000000      1.000000
  0.500000  0.000000  0.000000      1.000000
  0.000000  0.500000  0.000000      1.000000
  0.500000  0.500000  0.000000      1.000000
  0.000000  0.000000  0.500000      1.000000
  0.500000  0.000000  0.500000      1.000000
  0.000000  0.500000  0.500000      1.000000
  0.500000  0.500000  0.500000      1.000000
 
 Following cartesian coordinates:
            Coordinates               Weight
 -0.000000  0.000000  0.000000      1.000000
  0.029563  0.000000  0.031093      1.000000
 -0.000000  0.042626  0.000000      1.000000
  0.029563  0.042626  0.031093      1.000000
 -0.029563  0.000000  0.031093      1.000000
  0.000000  0.000000  0.062187      1.000000
 -0.029563  0.042626  0.031093      1.000000
  0.000000  0.042626  0.062187      1.000000
 


--------------------------------------------------------------------------------------------------------




 Dimension of arrays:
   k-points           NKPTS =      8   k-points in BZ     NKDIM =      8   number of bands    NBANDS=    208
   number of dos      NEDOS =    301   number of ions     NIONS =     39
   non local maximal  LDIM  =      6   non local SUM 2l+1 LMDIM =     18
   total plane-waves  NPLWV = 343000
   max r-space proj   IRMAX =   5734   max aug-charges    IRDMAX=  91523
   dimension x,y,z NGX =    70 NGY =   70 NGZ =   70
   dimension x,y,z NGXF=   140 NGYF=  140 NGZF=  140
   support grid    NGXF=   280 NGYF=  280 NGZF=  280
   ions per type =               8   8  23
   NGX,Y,Z   is equivalent  to a cutoff of   9.97,  9.92,  9.97 a.u.
   NGXF,Y,Z  is equivalent  to a cutoff of  19.95, 19.84, 19.95 a.u.

 SYSTEM =  CsPbBr3 cubic bulk                      
 POSCAR =  Cs8 Pb8 Br23                            

 Startparameter for this run:
   NWRITE =      2    write-flag & timer
   PREC   = accura    normal or accurate (medium, high low for compatibility)
   ISTART =      0    job   : 0-new  1-cont  2-samecut
   ICHARG =      2    charge: 1-file 2-atom 10-const
   ISPIN  =      1    spin polarized calculation?
   LNONCOLLINEAR =      F non collinear calculations
   LSORBIT =      F    spin-orbit coupling
   INIWAV =      1    electr: 0-lowe 1-rand  2-diag
   LASPH  =      T    aspherical Exc in radial PAW
   METAGGA=      F    non-selfconsistent MetaGGA calc.

 Electronic Relaxation 1
   ENCUT  =  300.0 eV  22.05 Ry    4.70 a.u.  16.48 16.57 16.48*2*pi/ulx,y,z
   ENINI  =  300.0     initial cutoff
   ENAUG  =  503.9 eV  augmentation charge cutoff
   NELM   =    200;   NELMIN=  2; NELMDL= -5     # of ELM steps 
   EDIFF  = 0.1E-05   stopping-criterion for ELM
   LREAL  =      T    real-space projection
   NLSPLINE    = F    spline interpolate recip. space projectors
   LCOMPAT=      F    compatible to vasp.4.4
   GGA_COMPAT  = T    GGA compatible to vasp.4.4-vasp.4.6
   LMAXPAW     = -100 max onsite density
   LMAXMIX     =    2 max onsite mixed and CHGCAR
   VOSKOWN=      0    Vosko Wilk Nusair interpolation
   ROPT   =   -0.00025  -0.00025  -0.00025
 Ionic relaxation
   EDIFFG = -.1E-01   stopping-criterion for IOM
   NSW    =      0    number of steps for IOM
   NBLOCK =      1;   KBLOCK =      1    inner block; outer block 
   IBRION =     -1    ionic relax: 0-MD 1-quasi-New 2-CG
   NFREE  =      1    steps in history (QN), initial steepest desc. (CG)
   ISIF   =      2    stress and relaxation
   IWAVPR =     10    prediction:  0-non 1-charg 2-wave 3-comb
   ISYM   =      0    0-nonsym 1-usesym 2-fastsym
   LCORR  =      T    Harris-Foulkes like correction to forces

   POTIM  = 0.5000    time-step for ionic-motion
   TEIN   =    0.0    initial temperature
   TEBEG  =    0.0;   TEEND  =   0.0 temperature during run
   SMASS  =  -3.00    Nose mass-parameter (am)
   estimated Nose-frequenzy (Omega)   =  0.10E-29 period in steps =****** mass=  -0.311E-26a.u.
   SCALEE = 1.0000    scale energy and forces
   NPACO  =    256;   APACO  = 16.0  distance and # of slots for P.C.
   PSTRESS=    0.0 pullay stress

  Mass of Ions in am
   POMASS = 132.90207.20 79.90
  Ionic Valenz
   ZVAL   =   9.00 14.00  7.00
  Atomic Wigner-Seitz radii
   RWIGS  =  -1.00 -1.00 -1.00
  virtual crystal weights 
   VCA    =   1.00  1.00  1.00
   NELECT =     344.0000    total number of electrons
   NUPDOWN=       0.0000    fix difference up-down

 DOS related values:
   EMIN   =  10.00;   EMAX   =-10.00  energy-range for DOS
   EFERMI =   0.00
   ISMEAR =     0;   SIGMA  =   0.01  broadening in eV -4-tet -1-fermi 0-gaus

 Electronic relaxation 2 (details)
   IALGO  =     38    algorithm
   LDIAG  =      T    sub-space diagonalisation (order eigenvalues)
   LSUBROT=      F    optimize rotation matrix (better conditioning)
   TURBO    =      0    0=normal 1=particle mesh
   IRESTART =      0    0=no restart 2=restart with 2 vectors
   NREBOOT  =      0    no. of reboots
   NMIN     =      0    reboot dimension
   EREF     =   0.00    reference energy to select bands
   IMIX   =      4    mixing-type and parameters
     AMIX     =   0.40;   BMIX     =  1.00
     AMIX_MAG =   1.60;   BMIX_MAG =  1.00
     AMIN     =   0.10
     WC   =   100.;   INIMIX=   1;  MIXPRE=   1;  MAXMIX= -45

 Intra band minimization:
   WEIMIN = 0.0000     energy-eigenvalue tresh-hold
   EBREAK =  0.12E-08  absolut break condition
   DEPER  =   0.30     relativ break condition  

   TIME   =   0.40     timestep for ELM

  volume/ion in A,a.u.               =      40.90       276.00
  Fermi-wavevector in a.u.,A,eV,Ry     =   0.981747  1.855232 13.113654  0.963826
  Thomas-Fermi vector in A             =   2.112777

 Write flags
   LWAVE        =      F    write WAVECAR
   LDOWNSAMPLE  =      F    k-point downsampling of WAVECAR
   LCHARG       =      F    write CHGCAR
   LVTOT        =      F    write LOCPOT, total local potential
   LVHAR        =      T    write LOCPOT, Hartree potential only
   LELF         =      F    write electronic localiz. function (ELF)
   LORBIT       =     10    0 simple, 1 ext, 2 COOP (PROOUT), +10 PAW based schemes


 Dipole corrections
   LMONO  =      F    monopole corrections only (constant potential shift)
   LDIPOL =      F    correct potential (dipole corrections)
   IDIPOL =      0    1-x, 2-y, 3-z, 4-all directions 
   EPSILON=  1.0000000 bulk dielectric constant

 Exchange correlation treatment:
   GGA     =    --    GGA type
   LEXCH   =     8    internal setting for exchange type
   VOSKOWN=      0    Vosko Wilk Nusair interpolation
   LHFCALC =     F    Hartree Fock is set to
   LHFONE  =     F    Hartree Fock one center treatment
   AEXX    =    0.0000 exact exchange contribution

 Linear response parameters
   LEPSILON=     F    determine dielectric tensor
   LRPA    =     F    only Hartree local field effects (RPA)
   LNABLA  =     F    use nabla operator in PAW spheres
   LVEL    =     F    velocity operator in full k-point grid
   LINTERFAST=   F  fast interpolation
   KINTER  =     0    interpolate to denser k-point grid
   CSHIFT  =0.1000    complex shift for real part using Kramers Kronig
   OMEGAMAX=  -1.0    maximum frequency
   DEG_THRESHOLD= 0.2000000E-02 threshold for treating states as degnerate
   RTIME   =   -0.100 relaxation time in fs
  (WPLASMAI=    0.000 imaginary part of plasma frequency in eV, 0.658/RTIME)
   DFIELD  = 0.0000000 0.0000000 0.0000000 field for delta impulse in time

 Orbital magnetization related:
   ORBITALMAG=     F  switch on orbital magnetization
   LCHIMAG   =     F  perturbation theory with respect to B field
   DQ        =  0.001000  dq finite difference perturbation B field
   LLRAUG    =     F  two centre corrections for induced B field



--------------------------------------------------------------------------------------------------------


 Static calculation
 charge density and potential will be updated during run
 non-spin polarized calculation
 Variant of blocked Davidson
 Davidson routine will perform the subspace rotation
 perform sub-space diagonalisation
    after iterative eigenvector-optimisation
 modified Broyden-mixing scheme, WC =      100.0
 initial mixing is a Kerker type mixing with AMIX =  0.4000 and BMIX =      1.0000
 Hartree-type preconditioning will be used
 using additional bands           36
 real space projection scheme for non local part
 use partial core corrections
 calculate Harris-corrections to forces   (improved forces if not selfconsistent)
 use gradient corrections 
 use of overlap-Matrix (Vanderbilt PP)
 Gauss-broadening in eV      SIGMA  =   0.01


--------------------------------------------------------------------------------------------------------


  energy-cutoff  :      300.00
  volume of cell :     1595.09
      direct lattice vectors                 reciprocal lattice vectors
     8.456489000  0.000000000  8.040301000     0.059126193 -0.000000000  0.062186727
     0.000000000 11.729847000  0.000000000     0.000000000  0.085252604 -0.000000000
    -8.456489000  0.000000000  8.040301000    -0.059126193  0.000000000  0.062186727

  length of vectors
    11.668703715 11.729847000 11.668703715     0.085808482  0.085252604  0.085808482



 k-points in units of 2pi/SCALE and weight: 1x1x1                                   
  -0.00000000  0.00000000  0.00000000       0.125
   0.02956310  0.00000000  0.03109336       0.125
  -0.00000000  0.04262630  0.00000000       0.125
   0.02956310  0.04262630  0.03109336       0.125
  -0.02956310  0.00000000  0.03109336       0.125
   0.00000000  0.00000000  0.06218673       0.125
  -0.02956310  0.04262630  0.03109336       0.125
   0.00000000  0.04262630  0.06218673       0.125

 k-points in reciprocal lattice and weights: 1x1x1                                   
   0.00000000  0.00000000  0.00000000       0.125
   0.50000000  0.00000000  0.00000000       0.125
   0.00000000  0.50000000  0.00000000       0.125
   0.50000000  0.50000000  0.00000000       0.125
   0.00000000  0.00000000  0.50000000       0.125
   0.50000000  0.00000000  0.50000000       0.125
   0.00000000  0.50000000  0.50000000       0.125
   0.50000000  0.50000000  0.50000000       0.125

 position of ions in fractional coordinates (direct lattice) 
   0.26614500  0.24676200  0.19840100
   0.77689600  0.24488100  0.71499700
   0.71960300  0.75268600  0.26385800
   0.20082700  0.75479600  0.77772600
   0.29095700  0.23798900  0.74540800
   0.79306700  0.24844100  0.22484800
   0.73456400  0.74936300  0.80738700
   0.22507200  0.75391600  0.26337700
   0.99632600  0.00093500  0.99958900
   0.49486600  0.00359300  0.50025700
   0.49994400  0.99683900  0.00043800
   0.00044400  0.00374900  0.49997200
   0.50040000  0.49806700  0.00029000
   0.00365700  0.50377700  0.50040500
   0.99997200  0.49878000  0.99995000
   0.51165600  0.48782300  0.49802500
   0.46906700  0.74761900  0.96343100
   0.97950100  0.75306800  0.45859000
   0.97083600  0.25006100  0.96916300
   0.44462000  0.24432000  0.47221800
   0.01369600  0.74969300  0.02611100
   0.52571700  0.24765600  0.03409500
   0.03521100  0.25608600  0.54129300
   0.24729200  0.47140500  0.94687800
   0.76195000  0.47459600  0.44684000
   0.45524000  0.53334900  0.24887400
   0.94972800  0.53519100  0.74626500
   0.55202900  0.02792000  0.75132000
   0.04705100  0.03584300  0.25248800
   0.74965700  0.97092300  0.05193700
   0.24995500  0.96999200  0.55624000
   0.24550200  0.02175000  0.95766200
   0.74234900  0.03691600  0.45272400
   0.45591800  0.95973900  0.25048900
   0.94780900  0.96592500  0.74725700
   0.75210700  0.52738800  0.05249900
   0.55170700  0.46156500  0.74828100
   0.05585300  0.46820300  0.25399000
   0.37550000  0.65673700  0.53634500

 position of ions in cartesian coordinates  (Angst):
   0.57287639  2.89448051  3.73508967
   0.52344821  2.87241666 11.99526878
   3.85400258  8.82889162  7.90732246
  -4.87854005  8.85364160  7.86786066
  -3.84305988  2.79157456  8.33268655
   4.80513772  2.91417492  8.18434299
  -0.61582690  8.78991334 12.39775017
  -0.32392581  8.84331933  3.92727698
  -0.02759352  0.01096741 16.04775737
  -0.04558893  0.04214534  8.00108845
   4.22406699 11.69276895  4.02322189
  -4.22425304  0.04397520  4.02349527
   4.22917471  5.84224971  4.02569831
  -4.20074400  5.90922713  4.05281020
   0.00018604  5.85061309 16.07997486
   0.11527040  5.72208915  8.11813915
  -4.18058373  8.76945648 11.51771510
   4.40507814  8.83337242 11.56268451
   0.01414771  2.93317727 15.59817590
  -0.23338218  2.86583622  7.37165349
  -0.10498731  8.79378419  0.32006026
   4.15739604  2.90496699  4.50105698
  -4.27967687  3.00384960  4.63526569
  -5.91604131  5.52950853  9.60148625
   2.66472425  5.56693847  9.71903545
   1.74513181  6.25610217  5.66128850
   1.72058262  6.27770855 13.63629421
  -1.68530215  0.32749733 10.47931827
  -1.73727573  0.42043291  2.40838372
   5.90026151 11.38877824  6.44505704
  -2.59009573 11.37785775  6.48205046
  -6.02237321  0.25512417  9.67380071
   2.44921063  0.43301903  9.60874664
   1.73720808 11.25759163  5.67972491
   1.69596578 11.33015246 13.62884085
   5.91622736  6.18618055  6.46927443
  -1.66232587  5.41408683 10.45229482
  -1.67554336  5.49194955  2.49123098
  -1.36018397  7.70342453  7.33150827



--------------------------------------------------------------------------------------------------------


 k-point  1 :   0.0000 0.0000 0.0000  plane waves:   18809
 k-point  2 :   0.5000 0.0000 0.0000  plane waves:   18808
 k-point  3 :   0.0000 0.5000 0.0000  plane waves:   18794
 k-point  4 :   0.5000 0.5000 0.0000  plane waves:   18804
 k-point  5 :   0.0000 0.0000 0.5000  plane waves:   18808
 k-point  6 :   0.5000 0.0000 0.5000  plane waves:   18790
 k-point  7 :   0.0000 0.5000 0.5000  plane waves:   18804
 k-point  8 :   0.5000 0.5000 0.5000  plane waves:   18800

 maximum and minimum number of plane-waves per node :      2389     2304

 maximum number of plane-waves:     18809
 maximum index in each direction: 
   IXMAX=   16   IYMAX=   16   IZMAX=   16
   IXMIN=  -16   IYMIN=  -17   IZMIN=  -16


 real space projection operators:
  total allocation   :      16746.85 KBytes
  max/ min on nodes  :       2188.64       1825.35


 parallel 3D FFT for wavefunctions:
    minimum data exchange during FFTs selected (reduces bandwidth)
 parallel 3D FFT for charge:
    minimum data exchange during FFTs selected (reduces bandwidth)


 total amount of memory used by VASP MPI-rank0    60651. kBytes
=======================================================================

   base      :      30000. kBytes
   nonlr-proj:       6486. kBytes
   fftplans  :       8423. kBytes
   grid      :       7465. kBytes
   one-center:         77. kBytes
   wavefun   :       8200. kBytes

     INWAV:  cpu time    0.0000: real time    0.0000
 Broyden mixing: mesh for mixing (old mesh)
   NGX = 33   NGY = 33   NGZ = 33
  (NGX  =140   NGY  =140   NGZ  =140)
  gives a total of  35937 points

 initial charge density was supplied:
 charge density of overlapping atoms calculated
 number of electron     345.0000000 magnetization 
 keeping initial charge density in first step


--------------------------------------------------------------------------------------------------------


 Maximum index for non-local projection operator          733
 Maximum index for augmentation-charges         3147 (set IRDMAX)


--------------------------------------------------------------------------------------------------------


 First call to EWALD:  gamma=   0.152
 Maximum number of real-space cells 3x 3x 3
 Maximum number of reciprocal cells 3x 3x 3

    FEWALD:  cpu time    0.0037: real time    0.0037


--------------------------------------- Iteration      1(   1)  ---------------------------------------


    POTLOK:  cpu time    0.2651: real time    0.2790
    SETDIJ:  cpu time    1.1999: real time    1.2000
     EDDAV:  cpu time   16.6297: real time   16.6347
       DOS:  cpu time    0.0008: real time    0.0008
    --------------------------------------------
      LOOP:  cpu time   18.0955: real time   18.1145

 eigenvalue-minimisations  :  3464
 total energy-change (2. order) : 0.1329977E+04  (-0.1105938E+05)
 number of electron     345.0000000 magnetization 
 augmentation part      345.0000000 magnetization 

 Free energy of the ion-electron system (eV)
  ---------------------------------------------------
  alpha Z        PSCENC =       872.70583573
  Ewald energy   TEWEN  =    -17925.35718937
  -Hartree energ DENC   =     -7431.20058998
  -exchange      EXHF   =         0.00000000
  -V(xc)+E(xc)   XCENC  =       908.16028013
  PAW double counting   =     21345.28103884   -22405.85761495
  entropy T*S    EENTRO =        -0.00140555
  eigenvalues    EBANDS =      -245.87223189
  atomic energy  EATOM  =     26212.11861568
  Solvation  Ediel_sol  =         0.00000000
  ---------------------------------------------------
  free energy    TOTEN  =      1329.97673865 eV

  energy without entropy =     1329.97814420  energy(sigma->0) =     1329.97744142


--------------------------------------------------------------------------------------------------------




--------------------------------------- Iteration      1(   2)  ---------------------------------------


     EDDAV:  cpu time   18.4742: real time   18.5284
       DOS:  cpu time    0.0004: real time    0.0004
    --------------------------------------------
      LOOP:  cpu time   18.4747: real time   18.5289

 eigenvalue-minimisations  :  4088
 total energy-change (2. order) :-0.2444874E+04  (-0.2361474E+04)
 number of electron     345.0000000 magnetization 
 augmentation part      345.0000000 magnetization 

 Free energy of the ion-electron system (eV)
  ---------------------------------------------------
  alpha Z        PSCENC =       872.70583573
  Ewald energy   TEWEN  =    -17925.35718937
  -Hartree energ DENC   =     -7431.20058998
  -exchange      EXHF   =         0.00000000
  -V(xc)+E(xc)   XCENC  =       908.16028013
  PAW double counting   =     21345.28103884   -22405.85761495
  entropy T*S    EENTRO =        -0.00000000
  eigenvalues    EBANDS =     -2690.74812133
  atomic energy  EATOM  =     26212.11861568
  Solvation  Ediel_sol  =         0.00000000
  ---------------------------------------------------
  free energy    TOTEN  =     -1114.89774524 eV

  energy without entropy =    -1114.89774524  energy(sigma->0) =    -1114.89774524


--------------------------------------------------------------------------------------------------------




--------------------------------------- Iteration      1(   3)  ---------------------------------------


     EDDAV:  cpu time   19.4819: real time   19.5271
       DOS:  cpu time    0.0004: real time    0.0004
    --------------------------------------------
      LOOP:  cpu time   19.4822: real time   19.5275

 eigenvalue-minimisations  :  4432
 total energy-change (2. order) :-0.3598058E+03  (-0.3579061E+03)
 number of electron     345.0000000 magnetization 
 augmentation part      345.0000000 magnetization 

 Free energy of the ion-electron system (eV)
  ---------------------------------------------------
  alpha Z        PSCENC =       872.70583573
  Ewald energy   TEWEN  =    -17925.35718937
  -Hartree energ DENC   =     -7431.20058998
  -exchange      EXHF   =         0.00000000
  -V(xc)+E(xc)   XCENC  =       908.16028013
  PAW double counting   =     21345.28103884   -22405.85761495
  entropy T*S    EENTRO =        -0.00000000
  eigenvalues    EBANDS =     -3050.55396940
  atomic energy  EATOM  =     26212.11861568
  Solvation  Ediel_sol  =         0.00000000
  ---------------------------------------------------
  free energy    TOTEN  =     -1474.70359330 eV

  energy without entropy =    -1474.70359330  energy(sigma->0) =    -1474.70359330


--------------------------------------------------------------------------------------------------------




--------------------------------------- Iteration      1(   4)  ---------------------------------------


     EDDAV:  cpu time   17.9297: real time   17.9467
       DOS:  cpu time    0.0004: real time    0.0004
    --------------------------------------------
      LOOP:  cpu time   17.9301: real time   17.9471

 eigenvalue-minimisations  :  3888
 total energy-change (2. order) :-0.1195860E+02  (-0.1192348E+02)
 number of electron     345.0000000 magnetization 
 augmentation part      345.0000000 magnetization 

 Free energy of the ion-electron system (eV)
  ---------------------------------------------------
  alpha Z        PSCENC =       872.70583573
  Ewald energy   TEWEN  =    -17925.35718937
  -Hartree energ DENC   =     -7431.20058998
  -exchange      EXHF   =         0.00000000
  -V(xc)+E(xc)   XCENC  =       908.16028013
  PAW double counting   =     21345.28103884   -22405.85761495
  entropy T*S    EENTRO =        -0.00000000
  eigenvalues    EBANDS =     -3062.51256474
  atomic energy  EATOM  =     26212.11861568
  Solvation  Ediel_sol  =         0.00000000
  ---------------------------------------------------
  free energy    TOTEN  =     -1486.66218865 eV

  energy without entropy =    -1486.66218865  energy(sigma->0) =    -1486.66218865


--------------------------------------------------------------------------------------------------------




--------------------------------------- Iteration      1(   5)  ---------------------------------------


     EDDAV:  cpu time   19.5104: real time   19.5530
       DOS:  cpu time    0.0008: real time    0.0008
    CHARGE:  cpu time    2.6987: real time    2.6988
    MIXING:  cpu time    0.0016: real time    0.0016
    --------------------------------------------
      LOOP:  cpu time   22.2115: real time   22.2541

 eigenvalue-minimisations  :  4448
 total energy-change (2. order) :-0.5709493E+00  (-0.5706889E+00)
 number of electron     343.9999997 magnetization 
 augmentation part       -5.0443643 magnetization 

 Broyden mixing:
  rms(total) = 0.10220E+01    rms(broyden)= 0.10214E+01
  rms(prec ) = 0.14052E+01
  weight for this iteration     100.00

 Free energy of the ion-electron system (eV)
  ---------------------------------------------------
  alpha Z        PSCENC =       872.70583573
  Ewald energy   TEWEN  =    -17925.35718937
  -Hartree energ DENC   =     -7431.20058998
  -exchange      EXHF   =         0.00000000
  -V(xc)+E(xc)   XCENC  =       908.16028013
  PAW double counting   =     21345.28103884   -22405.85761495
  entropy T*S    EENTRO =        -0.00000000
  eigenvalues    EBANDS =     -3063.08351408
  atomic energy  EATOM  =     26212.11861568
  Solvation  Ediel_sol  =         0.00000000
  ---------------------------------------------------
  free energy    TOTEN  =     -1487.23313799 eV

  energy without entropy =    -1487.23313799  energy(sigma->0) =    -1487.23313799


--------------------------------------------------------------------------------------------------------




--------------------------------------- Iteration      1(   6)  ---------------------------------------


    POTLOK:  cpu time    0.2556: real time    0.3177
    SETDIJ:  cpu time    1.1926: real time    1.1927
     EDDAV:  cpu time   19.0952: real time   19.0961
       DOS:  cpu time    0.0004: real time    0.0004
    CHARGE:  cpu time    2.6978: real time    2.6979
    MIXING:  cpu time    0.0016: real time    0.0016
    --------------------------------------------
      LOOP:  cpu time   23.2433: real time   23.3064

 eigenvalue-minimisations  :  4304
 total energy-change (2. order) : 0.7764485E+02  (-0.2368657E+01)
 number of electron     343.9999997 magnetization 
 augmentation part       -3.6504804 magnetization 

 Broyden mixing:
  rms(total) = 0.72800E+00    rms(broyden)= 0.72791E+00
  rms(prec ) = 0.90663E+00
  weight for this iteration     100.00

 eigenvalues of (default mixing * dielectric matrix)
  average eigenvalue GAMMA=   1.2054
  1.2054

 Free energy of the ion-electron system (eV)
  ---------------------------------------------------
  alpha Z        PSCENC =       872.70583573
  Ewald energy   TEWEN  =    -17925.35718937
  -Hartree energ DENC   =     -7411.83553668
  -exchange      EXHF   =         0.00000000
  -V(xc)+E(xc)   XCENC  =       936.18822737
  PAW double counting   =     21638.53794504   -22697.38319517
  entropy T*S    EENTRO =        -0.00000000
  eigenvalues    EBANDS =     -3034.56299546
  atomic energy  EATOM  =     26212.11861568
  Solvation  Ediel_sol  =         0.00000000
  ---------------------------------------------------
  free energy    TOTEN  =     -1409.58829286 eV

  energy without entropy =    -1409.58829286  energy(sigma->0) =    -1409.58829286


--------------------------------------------------------------------------------------------------------




--------------------------------------- Iteration      1(   7)  ---------------------------------------


    POTLOK:  cpu time    0.2757: real time    0.3156
    SETDIJ:  cpu time    1.1933: real time    1.1933
     EDDAV:  cpu time   18.4464: real time   18.4473
       DOS:  cpu time    0.0004: real time    0.0004
    CHARGE:  cpu time    2.6996: real time    2.6998
    MIXING:  cpu time    0.0019: real time    0.0019
    --------------------------------------------
      LOOP:  cpu time   22.6174: real time   22.6584

 eigenvalue-minimisations  :  4088
 total energy-change (2. order) : 0.5147694E+00  (-0.8469648E+00)
 number of electron     343.9999997 magnetization 
 augmentation part       -3.0996981 magnetization 

 Broyden mixing:
  rms(total) = 0.37199E+00    rms(broyden)= 0.37197E+00
  rms(prec ) = 0.41444E+00
  weight for this iteration     100.00

 eigenvalues of (default mixing * dielectric matrix)
  average eigenvalue GAMMA=   1.3076
  1.3076  1.3076

 Free energy of the ion-electron system (eV)
  ---------------------------------------------------
  alpha Z        PSCENC =       872.70583573
  Ewald energy   TEWEN  =    -17925.35718937
  -Hartree energ DENC   =     -7454.18092732
  -exchange      EXHF   =         0.00000000
  -V(xc)+E(xc)   XCENC  =       941.25800223
  PAW double counting   =     22260.00736584   -23317.02469257
  entropy T*S    EENTRO =        -0.00000000
  eigenvalues    EBANDS =     -2998.60053373
  atomic energy  EATOM  =     26212.11861568
  Solvation  Ediel_sol  =         0.00000000
  ---------------------------------------------------
  free energy    TOTEN  =     -1409.07352350 eV

  energy without entropy =    -1409.07352350  energy(sigma->0) =    -1409.07352350


--------------------------------------------------------------------------------------------------------




--------------------------------------- Iteration      1(   8)  ---------------------------------------


    POTLOK:  cpu time    0.2638: real time    0.3182
    SETDIJ:  cpu time    1.1944: real time    1.1944
     EDDAV:  cpu time   18.1768: real time   18.1775
       DOS:  cpu time    0.0004: real time    0.0004
    CHARGE:  cpu time    2.6995: real time    2.6997
    MIXING:  cpu time    0.0018: real time    0.0018
    --------------------------------------------
      LOOP:  cpu time   22.3366: real time   22.3919

 eigenvalue-minimisations  :  3992
 total energy-change (2. order) :-0.1729103E+00  (-0.4401626E-01)
 number of electron     343.9999997 magnetization 
 augmentation part       -3.1870815 magnetization 

 Broyden mixing:
  rms(total) = 0.21536E+00    rms(broyden)= 0.21535E+00
  rms(prec ) = 0.24466E+00
  weight for this iteration     100.00

 eigenvalues of (default mixing * dielectric matrix)
  average eigenvalue GAMMA=   1.6932
  1.1256  1.2982  2.6558

 Free energy of the ion-electron system (eV)
  ---------------------------------------------------
  alpha Z        PSCENC =       872.70583573
  Ewald energy   TEWEN  =    -17925.35718937
  -Hartree energ DENC   =     -7460.36316342
  -exchange      EXHF   =         0.00000000
  -V(xc)+E(xc)   XCENC  =       941.99068223
  PAW double counting   =     22498.47860924   -23555.90187531
  entropy T*S    EENTRO =        -0.00000000
  eigenvalues    EBANDS =     -2992.91794860
  atomic energy  EATOM  =     26212.11861568
  Solvation  Ediel_sol  =         0.00000000
  ---------------------------------------------------
  free energy    TOTEN  =     -1409.24643381 eV

  energy without entropy =    -1409.24643381  energy(sigma->0) =    -1409.24643381


--------------------------------------------------------------------------------------------------------




--------------------------------------- Iteration      1(   9)  ---------------------------------------


    POTLOK:  cpu time    0.2646: real time    0.3158
    SETDIJ:  cpu time    1.1934: real time    1.1935
     EDDAV:  cpu time   17.6719: real time   17.6727
       DOS:  cpu time    0.0005: real time    0.0005
    CHARGE:  cpu time    2.6989: real time    2.6990
    MIXING:  cpu time    0.0017: real time    0.0017
    --------------------------------------------
      LOOP:  cpu time   21.8311: real time   21.8832

 eigenvalue-minimisations  :  3824
 total energy-change (2. order) :-0.6523144E-01  (-0.1756338E-01)
 number of electron     343.9999997 magnetization 
 augmentation part       -3.2247619 magnetization 

 Broyden mixing:
  rms(total) = 0.45860E-01    rms(broyden)= 0.45857E-01
  rms(prec ) = 0.55643E-01
  weight for this iteration     100.00

 eigenvalues of (default mixing * dielectric matrix)
  average eigenvalue GAMMA=   1.4696
  2.5328  1.2488  1.2488  0.8479

 Free energy of the ion-electron system (eV)
  ---------------------------------------------------
  alpha Z        PSCENC =       872.70583573
  Ewald energy   TEWEN  =    -17925.35718937
  -Hartree energ DENC   =     -7467.65609713
  -exchange      EXHF   =         0.00000000
  -V(xc)+E(xc)   XCENC  =       943.87520230
  PAW double counting   =     22834.88904498   -23893.19440069
  entropy T*S    EENTRO =        -0.00000000
  eigenvalues    EBANDS =     -2986.69267675
  atomic energy  EATOM  =     26212.11861568
  Solvation  Ediel_sol  =         0.00000000
  ---------------------------------------------------
  free energy    TOTEN  =     -1409.31166525 eV

  energy without entropy =    -1409.31166525  energy(sigma->0) =    -1409.31166525


--------------------------------------------------------------------------------------------------------




--------------------------------------- Iteration      1(  10)  ---------------------------------------


    POTLOK:  cpu time    0.3007: real time    0.3170
    SETDIJ:  cpu time    1.1924: real time    1.1924
     EDDAV:  cpu time   19.9008: real time   19.9020
       DOS:  cpu time    0.0012: real time    0.0012
    CHARGE:  cpu time    2.6904: real time    2.6905
    MIXING:  cpu time    0.0016: real time    0.0016
    --------------------------------------------
      LOOP:  cpu time   24.0871: real time   24.1047

 eigenvalue-minimisations  :  4592
 total energy-change (2. order) :-0.3446970E-02  (-0.2353830E-02)
 number of electron     343.9999997 magnetization 
 augmentation part       -3.2116934 magnetization 

 Broyden mixing:
  rms(total) = 0.32377E-01    rms(broyden)= 0.32375E-01
  rms(prec ) = 0.41210E-01
  weight for this iteration     100.00

 eigenvalues of (default mixing * dielectric matrix)
  average eigenvalue GAMMA=   1.3160
  2.4136  1.3310  1.3310  0.8420  0.6624

 Free energy of the ion-electron system (eV)
  ---------------------------------------------------
  alpha Z        PSCENC =       872.70583573
  Ewald energy   TEWEN  =    -17925.35718937
  -Hartree energ DENC   =     -7465.98307785
  -exchange      EXHF   =         0.00000000
  -V(xc)+E(xc)   XCENC  =       943.72823968
  PAW double counting   =     22804.66939293   -23863.02765466
  entropy T*S    EENTRO =        -0.00000000
  eigenvalues    EBANDS =     -2988.16927437
  atomic energy  EATOM  =     26212.11861568
  Solvation  Ediel_sol  =         0.00000000
  ---------------------------------------------------
  free energy    TOTEN  =     -1409.31511222 eV

  energy without entropy =    -1409.31511222  energy(sigma->0) =    -1409.31511222


--------------------------------------------------------------------------------------------------------




--------------------------------------- Iteration      1(  11)  ---------------------------------------


    POTLOK:  cpu time    0.2914: real time    0.3158
    SETDIJ:  cpu time    1.1985: real time    1.1986
     EDDAV:  cpu time   17.5349: real time   17.5360
       DOS:  cpu time    0.0005: real time    0.0005
    CHARGE:  cpu time    2.7070: real time    2.7071
    MIXING:  cpu time    0.0019: real time    0.0019
    --------------------------------------------
      LOOP:  cpu time   21.7342: real time   21.7599

 eigenvalue-minimisations  :  3768
 total energy-change (2. order) :-0.1961837E-02  (-0.2961957E-03)
 number of electron     343.9999997 magnetization 
 augmentation part       -3.2106108 magnetization 

 Broyden mixing:
  rms(total) = 0.14873E-01    rms(broyden)= 0.14873E-01
  rms(prec ) = 0.23035E-01
  weight for this iteration     100.00

 eigenvalues of (default mixing * dielectric matrix)
  average eigenvalue GAMMA=   1.5993
  2.7497  2.7497  1.2027  1.2027  0.8456  0.8456

 Free energy of the ion-electron system (eV)
  ---------------------------------------------------
  alpha Z        PSCENC =       872.70583573
  Ewald energy   TEWEN  =    -17925.35718937
  -Hartree energ DENC   =     -7464.65013961
  -exchange      EXHF   =         0.00000000
  -V(xc)+E(xc)   XCENC  =       943.66571961
  PAW double counting   =     22787.76568192   -23846.29528069
  entropy T*S    EENTRO =        -0.00000000
  eigenvalues    EBANDS =     -2989.27031733
  atomic energy  EATOM  =     26212.11861568
  Solvation  Ediel_sol  =         0.00000000
  ---------------------------------------------------
  free energy    TOTEN  =     -1409.31707405 eV

  energy without entropy =    -1409.31707405  energy(sigma->0) =    -1409.31707405


--------------------------------------------------------------------------------------------------------




--------------------------------------- Iteration      1(  12)  ---------------------------------------


    POTLOK:  cpu time    0.2513: real time    0.3120
    SETDIJ:  cpu time    1.1986: real time    1.1986
     EDDAV:  cpu time   17.0936: real time   17.0945
       DOS:  cpu time    0.0004: real time    0.0004
    CHARGE:  cpu time    2.6999: real time    2.7001
    MIXING:  cpu time    0.0019: real time    0.0019
    --------------------------------------------
      LOOP:  cpu time   21.2457: real time   21.3076

 eigenvalue-minimisations  :  3616
 total energy-change (2. order) :-0.2683685E-02  (-0.5127584E-03)
 number of electron     343.9999997 magnetization 
 augmentation part       -3.2141737 magnetization 

 Broyden mixing:
  rms(total) = 0.10218E-01    rms(broyden)= 0.10217E-01
  rms(prec ) = 0.13151E-01
  weight for this iteration     100.00

 eigenvalues of (default mixing * dielectric matrix)
  average eigenvalue GAMMA=   1.5876
  2.8457  2.8457  1.3014  1.3014  0.8827  0.9681  0.9681

 Free energy of the ion-electron system (eV)
  ---------------------------------------------------
  alpha Z        PSCENC =       872.70583573
  Ewald energy   TEWEN  =    -17925.35718937
  -Hartree energ DENC   =     -7463.97163717
  -exchange      EXHF   =         0.00000000
  -V(xc)+E(xc)   XCENC  =       943.70323195
  PAW double counting   =     22782.10065713   -23840.88978497
  entropy T*S    EENTRO =        -0.00000000
  eigenvalues    EBANDS =     -2989.72948672
  atomic energy  EATOM  =     26212.11861568
  Solvation  Ediel_sol  =         0.00000000
  ---------------------------------------------------
  free energy    TOTEN  =     -1409.31975774 eV

  energy without entropy =    -1409.31975774  energy(sigma->0) =    -1409.31975774


--------------------------------------------------------------------------------------------------------




--------------------------------------- Iteration      1(  13)  ---------------------------------------


    POTLOK:  cpu time    0.2770: real time    0.3163
    SETDIJ:  cpu time    1.1947: real time    1.1948
     EDDAV:  cpu time   19.4016: real time   19.4029
       DOS:  cpu time    0.0004: real time    0.0004
    CHARGE:  cpu time    2.7059: real time    2.7060
    MIXING:  cpu time    0.0019: real time    0.0019
    --------------------------------------------
      LOOP:  cpu time   23.5815: real time   23.6222

 eigenvalue-minimisations  :  4408
 total energy-change (2. order) : 0.3324472E-03  (-0.1421347E-03)
 number of electron     343.9999997 magnetization 
 augmentation part       -3.2148113 magnetization 

 Broyden mixing:
  rms(total) = 0.51357E-02    rms(broyden)= 0.51351E-02
  rms(prec ) = 0.60453E-02
  weight for this iteration     100.00

 eigenvalues of (default mixing * dielectric matrix)
  average eigenvalue GAMMA=   1.5552
  3.2026  2.4693  1.6154  1.2372  1.0801  1.0801  0.9768  0.7804

 Free energy of the ion-electron system (eV)
  ---------------------------------------------------
  alpha Z        PSCENC =       872.70583573
  Ewald energy   TEWEN  =    -17925.35718937
  -Hartree energ DENC   =     -7464.98010915
  -exchange      EXHF   =         0.00000000
  -V(xc)+E(xc)   XCENC  =       943.76545429
  PAW double counting   =     22781.89792943   -23840.64638969
  entropy T*S    EENTRO =        -0.00000000
  eigenvalues    EBANDS =     -2988.82357221
  atomic energy  EATOM  =     26212.11861568
  Solvation  Ediel_sol  =         0.00000000
  ---------------------------------------------------
  free energy    TOTEN  =     -1409.31942529 eV

  energy without entropy =    -1409.31942529  energy(sigma->0) =    -1409.31942529


--------------------------------------------------------------------------------------------------------




--------------------------------------- Iteration      1(  14)  ---------------------------------------


    POTLOK:  cpu time    0.2492: real time    0.3151
    SETDIJ:  cpu time    1.1938: real time    1.1939
     EDDAV:  cpu time   17.8815: real time   17.8827
       DOS:  cpu time    0.0007: real time    0.0006
    CHARGE:  cpu time    2.7087: real time    2.7088
    MIXING:  cpu time    0.0018: real time    0.0018
    --------------------------------------------
      LOOP:  cpu time   22.0357: real time   22.1029

 eigenvalue-minimisations  :  3888
 total energy-change (2. order) : 0.7233698E-04  (-0.4458318E-04)
 number of electron     343.9999997 magnetization 
 augmentation part       -3.2141072 magnetization 

 Broyden mixing:
  rms(total) = 0.25424E-02    rms(broyden)= 0.25413E-02
  rms(prec ) = 0.33257E-02
  weight for this iteration     100.00

 eigenvalues of (default mixing * dielectric matrix)
  average eigenvalue GAMMA=   1.5381
  3.2251  2.1765  2.1765  1.1219  1.1219  1.1438  1.1438  0.8668  0.8668

 Free energy of the ion-electron system (eV)
  ---------------------------------------------------
  alpha Z        PSCENC =       872.70583573
  Ewald energy   TEWEN  =    -17925.35718937
  -Hartree energ DENC   =     -7465.30549585
  -exchange      EXHF   =         0.00000000
  -V(xc)+E(xc)   XCENC  =       943.78357880
  PAW double counting   =     22783.65914788   -23842.38430727
  entropy T*S    EENTRO =        -0.00000000
  eigenvalues    EBANDS =     -2988.53953855
  atomic energy  EATOM  =     26212.11861568
  Solvation  Ediel_sol  =         0.00000000
  ---------------------------------------------------
  free energy    TOTEN  =     -1409.31935295 eV

  energy without entropy =    -1409.31935295  energy(sigma->0) =    -1409.31935295


--------------------------------------------------------------------------------------------------------




--------------------------------------- Iteration      1(  15)  ---------------------------------------


    POTLOK:  cpu time    0.2856: real time    0.3004
    SETDIJ:  cpu time    1.1934: real time    1.1934
     EDDAV:  cpu time   17.6148: real time   17.6156
       DOS:  cpu time    0.0004: real time    0.0004
    CHARGE:  cpu time    2.6989: real time    2.6990
    MIXING:  cpu time    0.0019: real time    0.0019
    --------------------------------------------
      LOOP:  cpu time   21.7950: real time   21.8107

 eigenvalue-minimisations  :  3792
 total energy-change (2. order) : 0.5147332E-05  (-0.2944814E-05)
 number of electron     343.9999997 magnetization 
 augmentation part       -3.2141388 magnetization 

 Broyden mixing:
  rms(total) = 0.14432E-02    rms(broyden)= 0.14420E-02
  rms(prec ) = 0.20233E-02
  weight for this iteration     100.00

 eigenvalues of (default mixing * dielectric matrix)
  average eigenvalue GAMMA=   1.6451
  3.8025  2.5257  2.5257  1.3379  1.3379  1.1523  1.1523  0.7983  0.9091  0.9091

 Free energy of the ion-electron system (eV)
  ---------------------------------------------------
  alpha Z        PSCENC =       872.70583573
  Ewald energy   TEWEN  =    -17925.35718937
  -Hartree energ DENC   =     -7465.41020024
  -exchange      EXHF   =         0.00000000
  -V(xc)+E(xc)   XCENC  =       943.78578274
  PAW double counting   =     22784.03351465   -23842.75329050
  entropy T*S    EENTRO =        -0.00000000
  eigenvalues    EBANDS =     -2988.44241650
  atomic energy  EATOM  =     26212.11861568
  Solvation  Ediel_sol  =         0.00000000
  ---------------------------------------------------
  free energy    TOTEN  =     -1409.31934781 eV

  energy without entropy =    -1409.31934781  energy(sigma->0) =    -1409.31934781


--------------------------------------------------------------------------------------------------------




--------------------------------------- Iteration      1(  16)  ---------------------------------------


    POTLOK:  cpu time    0.2724: real time    0.3088
    SETDIJ:  cpu time    1.1935: real time    1.1935
     EDDAV:  cpu time   17.5561: real time   17.5568
       DOS:  cpu time    0.0004: real time    0.0004
    CHARGE:  cpu time    2.7089: real time    2.7090
    MIXING:  cpu time    0.0019: real time    0.0019
    --------------------------------------------
      LOOP:  cpu time   21.7330: real time   21.7703

 eigenvalue-minimisations  :  3784
 total energy-change (2. order) :-0.4443194E-04  (-0.3519954E-05)
 number of electron     343.9999997 magnetization 
 augmentation part       -3.2137844 magnetization 

 Broyden mixing:
  rms(total) = 0.63293E-03    rms(broyden)= 0.63024E-03
  rms(prec ) = 0.77522E-03
  weight for this iteration     100.00

 eigenvalues of (default mixing * dielectric matrix)
  average eigenvalue GAMMA=   1.6883
  4.2092  2.7799  2.1967  2.1967  1.1124  1.1124  1.1544  1.1544  0.9256  0.9256
  0.8036

 Free energy of the ion-electron system (eV)
  ---------------------------------------------------
  alpha Z        PSCENC =       872.70583573
  Ewald energy   TEWEN  =    -17925.35718937
  -Hartree energ DENC   =     -7465.46439518
  -exchange      EXHF   =         0.00000000
  -V(xc)+E(xc)   XCENC  =       943.77958048
  PAW double counting   =     22783.36946930   -23842.08256411
  entropy T*S    EENTRO =        -0.00000000
  eigenvalues    EBANDS =     -2988.38874477
  atomic energy  EATOM  =     26212.11861568
  Solvation  Ediel_sol  =         0.00000000
  ---------------------------------------------------
  free energy    TOTEN  =     -1409.31939224 eV

  energy without entropy =    -1409.31939224  energy(sigma->0) =    -1409.31939224


--------------------------------------------------------------------------------------------------------




--------------------------------------- Iteration      1(  17)  ---------------------------------------


    POTLOK:  cpu time    0.2862: real time    0.3026
    SETDIJ:  cpu time    1.1942: real time    1.1944
     EDDAV:  cpu time   18.0365: real time   18.0374
       DOS:  cpu time    0.0005: real time    0.0005
    CHARGE:  cpu time    2.7059: real time    2.7059
    MIXING:  cpu time    0.0020: real time    0.0020
    --------------------------------------------
      LOOP:  cpu time   22.2251: real time   22.2427

 eigenvalue-minimisations  :  3936
 total energy-change (2. order) :-0.1174194E-04  (-0.9318003E-06)
 number of electron     343.9999997 magnetization 
 augmentation part       -3.2137181 magnetization 

 Broyden mixing:
  rms(total) = 0.40757E-03    rms(broyden)= 0.40345E-03
  rms(prec ) = 0.45097E-03
  weight for this iteration     100.00

 eigenvalues of (default mixing * dielectric matrix)
  average eigenvalue GAMMA=   1.6550
  4.3319  2.9645  2.1665  2.1665  1.1938  1.1938  1.1291  1.1291  0.9977  0.9977
  0.7948  0.7948

 Free energy of the ion-electron system (eV)
  ---------------------------------------------------
  alpha Z        PSCENC =       872.70583573
  Ewald energy   TEWEN  =    -17925.35718937
  -Hartree energ DENC   =     -7465.43530616
  -exchange      EXHF   =         0.00000000
  -V(xc)+E(xc)   XCENC  =       943.77541832
  PAW double counting   =     22783.31780986   -23842.03010942
  entropy T*S    EENTRO =        -0.00000000
  eigenvalues    EBANDS =     -2988.41447862
  atomic energy  EATOM  =     26212.11861568
  Solvation  Ediel_sol  =         0.00000000
  ---------------------------------------------------
  free energy    TOTEN  =     -1409.31940398 eV

  energy without entropy =    -1409.31940398  energy(sigma->0) =    -1409.31940398


--------------------------------------------------------------------------------------------------------




--------------------------------------- Iteration      1(  18)  ---------------------------------------


    POTLOK:  cpu time    0.3098: real time    0.3168
    SETDIJ:  cpu time    1.1945: real time    1.1945
     EDDAV:  cpu time   13.9381: real time   13.9390
       DOS:  cpu time    0.0012: real time    0.0012
    CHARGE:  cpu time    2.7085: real time    2.7086
    MIXING:  cpu time    0.0020: real time    0.0020
    --------------------------------------------
      LOOP:  cpu time   18.1540: real time   18.1620

 eigenvalue-minimisations  :  2504
 total energy-change (2. order) : 0.8909656E-05  (-0.1452772E-06)
 number of electron     343.9999997 magnetization 
 augmentation part       -3.2137512 magnetization 

 Broyden mixing:
  rms(total) = 0.17297E-03    rms(broyden)= 0.16305E-03
  rms(prec ) = 0.18869E-03
  weight for this iteration     100.00

 eigenvalues of (default mixing * dielectric matrix)
  average eigenvalue GAMMA=   1.6782
  4.6052  2.9888  2.2900  2.2900  1.3184  1.3184  1.1562  1.1562  1.0375  1.0375
  0.9087  0.9087  0.8006

 Free energy of the ion-electron system (eV)
  ---------------------------------------------------
  alpha Z        PSCENC =       872.70583573
  Ewald energy   TEWEN  =    -17925.35718937
  -Hartree energ DENC   =     -7465.44952244
  -exchange      EXHF   =         0.00000000
  -V(xc)+E(xc)   XCENC  =       943.77606047
  PAW double counting   =     22783.38329519   -23842.09406248
  entropy T*S    EENTRO =        -0.00000000
  eigenvalues    EBANDS =     -2988.40242786
  atomic energy  EATOM  =     26212.11861568
  Solvation  Ediel_sol  =         0.00000000
  ---------------------------------------------------
  free energy    TOTEN  =     -1409.31939507 eV

  energy without entropy =    -1409.31939507  energy(sigma->0) =    -1409.31939507


--------------------------------------------------------------------------------------------------------




--------------------------------------- Iteration      1(  19)  ---------------------------------------


    POTLOK:  cpu time    0.2691: real time    0.3175
    SETDIJ:  cpu time    1.1942: real time    1.1942
     EDDAV:  cpu time   13.6085: real time   13.6092
       DOS:  cpu time    0.0008: real time    0.0008
    CHARGE:  cpu time    2.7021: real time    2.7022
    MIXING:  cpu time    0.0023: real time    0.0023
    --------------------------------------------
      LOOP:  cpu time   17.7770: real time   17.8262

 eigenvalue-minimisations  :  2384
 total energy-change (2. order) : 0.3816518E-05  (-0.7221322E-07)
 number of electron     343.9999997 magnetization 
 augmentation part       -3.2137457 magnetization 

 Broyden mixing:
  rms(total) = 0.12089E-03    rms(broyden)= 0.10623E-03
  rms(prec ) = 0.11938E-03
  weight for this iteration     100.00
  WARNING: grid for Broyden might be to small

 eigenvalues of (default mixing * dielectric matrix)
  average eigenvalue GAMMA=   1.5990
  4.6339  3.0043  2.2699  2.2699  1.3356  1.3356  1.1487  1.1487  1.0713  1.0713
  0.9180  0.9180  0.7929  0.4681

 Free energy of the ion-electron system (eV)
  ---------------------------------------------------
  alpha Z        PSCENC =       872.70583573
  Ewald energy   TEWEN  =    -17925.35718937
  -Hartree energ DENC   =     -7465.44956511
  -exchange      EXHF   =         0.00000000
  -V(xc)+E(xc)   XCENC  =       943.77594831
  PAW double counting   =     22783.46378740   -23842.17572390
  entropy T*S    EENTRO =        -0.00000000
  eigenvalues    EBANDS =     -2988.40109999
  atomic energy  EATOM  =     26212.11861568
  Solvation  Ediel_sol  =         0.00000000
  ---------------------------------------------------
  free energy    TOTEN  =     -1409.31939125 eV

  energy without entropy =    -1409.31939125  energy(sigma->0) =    -1409.31939125


--------------------------------------------------------------------------------------------------------




--------------------------------------- Iteration      1(  20)  ---------------------------------------


    POTLOK:  cpu time    0.2528: real time    0.3266
    SETDIJ:  cpu time    1.1921: real time    1.1922
     EDDAV:  cpu time   13.0301: real time   13.0308
       DOS:  cpu time    0.0005: real time    0.0005
    CHARGE:  cpu time    2.7060: real time    2.7062
    MIXING:  cpu time    0.0024: real time    0.0024
    --------------------------------------------
      LOOP:  cpu time   17.1840: real time   17.2586

 eigenvalue-minimisations  :  2192
 total energy-change (2. order) : 0.2006313E-05  (-0.5447661E-07)
 number of electron     343.9999997 magnetization 
 augmentation part       -3.2137758 magnetization 

 Broyden mixing:
  rms(total) = 0.91751E-04    rms(broyden)= 0.71344E-04
  rms(prec ) = 0.82042E-04
  weight for this iteration     100.00
  WARNING: grid for Broyden might be to small

 eigenvalues of (default mixing * dielectric matrix)
  average eigenvalue GAMMA=   1.6027
  4.7308  3.0457  2.5330  1.9772  1.9772  1.2165  1.2165  1.1452  1.1452  1.0300
  1.0300  0.9644  0.8044  0.8044  0.4197

 Free energy of the ion-electron system (eV)
  ---------------------------------------------------
  alpha Z        PSCENC =       872.70583573
  Ewald energy   TEWEN  =    -17925.35718937
  -Hartree energ DENC   =     -7465.45272236
  -exchange      EXHF   =         0.00000000
  -V(xc)+E(xc)   XCENC  =       943.77607098
  PAW double counting   =     22783.46910380   -23842.17923446
  entropy T*S    EENTRO =        -0.00000000
  eigenvalues    EBANDS =     -2988.39986926
  atomic energy  EATOM  =     26212.11861568
  Solvation  Ediel_sol  =         0.00000000
  ---------------------------------------------------
  free energy    TOTEN  =     -1409.31938925 eV

  energy without entropy =    -1409.31938925  energy(sigma->0) =    -1409.31938925


--------------------------------------------------------------------------------------------------------




--------------------------------------- Iteration      1(  21)  ---------------------------------------


    POTLOK:  cpu time    0.2868: real time    0.3189
    SETDIJ:  cpu time    1.1973: real time    1.1974
     EDDAV:  cpu time   12.3658: real time   12.3665
       DOS:  cpu time    0.0005: real time    0.0005
    CHARGE:  cpu time    2.7006: real time    2.7007
    MIXING:  cpu time    0.0021: real time    0.0021
    --------------------------------------------
      LOOP:  cpu time   16.5532: real time   16.5861

 eigenvalue-minimisations  :  1952
 total energy-change (2. order) : 0.1836965E-05  (-0.1191111E-07)
 number of electron     343.9999997 magnetization 
 augmentation part       -3.2137864 magnetization 

 Broyden mixing:
  rms(total) = 0.93212E-04    rms(broyden)= 0.73215E-04
  rms(prec ) = 0.80825E-04
  weight for this iteration     100.00
  WARNING: grid for Broyden might be to small

 eigenvalues of (default mixing * dielectric matrix)
  average eigenvalue GAMMA=   1.5446
  4.7311  3.0660  2.5164  2.0115  2.0115  1.2341  1.2341  1.1511  1.1511  1.0185
  1.0185  0.9550  0.7857  0.7857  0.5220  0.5220

 Free energy of the ion-electron system (eV)
  ---------------------------------------------------
  alpha Z        PSCENC =       872.70583573
  Ewald energy   TEWEN  =    -17925.35718937
  -Hartree energ DENC   =     -7465.45631307
  -exchange      EXHF   =         0.00000000
  -V(xc)+E(xc)   XCENC  =       943.77630362
  PAW double counting   =     22783.48714177   -23842.19755871
  entropy T*S    EENTRO =        -0.00000000
  eigenvalues    EBANDS =     -2988.39622306
  atomic energy  EATOM  =     26212.11861568
  Solvation  Ediel_sol  =         0.00000000
  ---------------------------------------------------
  free energy    TOTEN  =     -1409.31938741 eV

  energy without entropy =    -1409.31938741  energy(sigma->0) =    -1409.31938741


--------------------------------------------------------------------------------------------------------




--------------------------------------- Iteration      1(  22)  ---------------------------------------


    POTLOK:  cpu time    0.2865: real time    0.3181
    SETDIJ:  cpu time    1.1994: real time    1.1994
     EDDAV:  cpu time   12.3202: real time   12.3208
       DOS:  cpu time    0.0004: real time    0.0004
    --------------------------------------------
      LOOP:  cpu time   13.8064: real time   13.8386

 eigenvalue-minimisations  :  1936
 total energy-change (2. order) :-0.2858815E-06  (-0.5731981E-08)
 number of electron     343.9999997 magnetization 
 augmentation part       -3.2137864 magnetization 

 Free energy of the ion-electron system (eV)
  ---------------------------------------------------
  alpha Z        PSCENC =       872.70583573
  Ewald energy   TEWEN  =    -17925.35718937
  -Hartree energ DENC   =     -7465.45588806
  -exchange      EXHF   =         0.00000000
  -V(xc)+E(xc)   XCENC  =       943.77625981
  PAW double counting   =     22783.48310785   -23842.19298937
  entropy T*S    EENTRO =        -0.00000000
  eigenvalues    EBANDS =     -2988.39713996
  atomic energy  EATOM  =     26212.11861568
  Solvation  Ediel_sol  =         0.00000000
  ---------------------------------------------------
  free energy    TOTEN  =     -1409.31938770 eV

  energy without entropy =    -1409.31938770  energy(sigma->0) =    -1409.31938770


--------------------------------------------------------------------------------------------------------




 average (electrostatic) potential at core
  the test charge radii are     1.1312  1.1541  1.0178
  (the norm of the test charge is              1.0000)
       1 -55.1843       2 -55.1911       3 -55.3966       4 -55.2051       5 -55.2982
       6 -55.2129       7 -55.3481       8 -55.1343       9-101.6023      10-101.9386
      11-101.6221      12-101.6595      13-101.5821      14-101.9123      15-101.6370
      16-101.6887      17 -68.9730      18 -69.0440      19 -69.0450      20 -69.4004
      21 -69.0460      22 -68.9600      23 -69.0229      24 -68.9734      25 -69.3812
      26 -68.9248      27 -69.0251      28 -69.0343      29 -68.9590      30 -69.0330
      31 -68.9803      32 -69.0189      33 -68.9885      34 -69.0337      35 -68.9559
      36 -68.9658      37 -68.9282      38 -69.0130      39 -69.2091



 E-fermi :   0.4963     XC(G=0):  -7.9571     alpha+bet : -6.9586


 k-point     1 :       0.0000    0.0000    0.0000
  band No.  band energies     occupation 
      1     -20.9204      2.00000
      2     -20.8764      2.00000
      3     -20.8275      2.00000
      4     -20.7403      2.00000
      5     -20.7366      2.00000
      6     -20.7205      2.00000
      7     -20.7163      2.00000
      8     -20.6681      2.00000
      9     -16.7105      2.00000
     10     -16.6841      2.00000
     11     -16.6726      2.00000
     12     -16.6582      2.00000
     13     -16.6071      2.00000
     14     -16.5985      2.00000
     15     -16.5865      2.00000
     16     -16.5745      2.00000
     17     -16.5730      2.00000
     18     -16.5534      2.00000
     19     -16.5389      2.00000
     20     -16.5031      2.00000
     21     -16.4568      2.00000
     22     -16.4515      2.00000
     23     -16.4399      2.00000
     24     -16.4233      2.00000
     25     -16.4188      2.00000
     26     -16.4176      2.00000
     27     -16.4175      2.00000
     28     -16.4071      2.00000
     29     -16.3687      2.00000
     30     -16.3579      2.00000
     31     -16.3371      2.00000
     32     -16.3352      2.00000
     33     -16.3210      2.00000
     34     -16.3154      2.00000
     35     -16.3095      2.00000
     36     -16.3044      2.00000
     37     -16.3013      2.00000
     38     -16.2978      2.00000
     39     -16.2923      2.00000
     40     -16.2891      2.00000
     41     -16.2837      2.00000
     42     -16.2750      2.00000
     43     -16.2709      2.00000
     44     -16.2688      2.00000
     45     -16.2589      2.00000
     46     -16.2462      2.00000
     47     -16.2407      2.00000
     48     -16.2344      2.00000
     49     -14.4936      2.00000
     50     -14.3746      2.00000
     51     -14.3021      2.00000
     52     -14.2661      2.00000
     53     -14.1333      2.00000
     54     -14.1256      2.00000
     55     -14.1106      2.00000
     56     -14.0762      2.00000
     57     -14.0615      2.00000
     58     -14.0542      2.00000
     59     -14.0400      2.00000
     60     -14.0303      2.00000
     61     -14.0087      2.00000
     62     -14.0011      2.00000
     63     -13.9939      2.00000
     64     -13.9842      2.00000
     65     -13.9435      2.00000
     66     -13.9264      2.00000
     67     -13.8910      2.00000
     68     -13.7699      2.00000
     69     -13.7495      2.00000
     70     -13.7313      2.00000
     71     -13.7144      2.00000
     72      -8.1970      2.00000
     73      -7.7834      2.00000
     74      -7.7401      2.00000
     75      -7.7119      2.00000
     76      -7.3587      2.00000
     77      -7.3404      2.00000
     78      -7.3163      2.00000
     79      -7.2940      2.00000
     80      -7.2737      2.00000
     81      -7.2648      2.00000
     82      -7.2519      2.00000
     83      -7.2402      2.00000
     84      -7.2293      2.00000
     85      -7.2255      2.00000
     86      -7.2088      2.00000
     87      -7.1643      2.00000
     88      -7.1636      2.00000
     89      -7.1533      2.00000
     90      -7.1458      2.00000
     91      -7.1408      2.00000
     92      -7.1382      2.00000
     93      -7.1321      2.00000
     94      -7.1219      2.00000
     95      -7.1175      2.00000
[...]


--------------------------------------------------------------------------------------------------------


 soft charge-density along one line, spin component           1
         0         1         2         3         4         5         6         7         8         9
 total charge-density along one line

 pseudopotential strength for first ion, spin component:           1
 17.929  -4.693   0.000   0.000  -0.000  -0.000  -0.000   0.000
 -4.693   1.237  -0.000  -0.000   0.000   0.000   0.000  -0.000
  0.000  -0.000   2.247  -0.000  -0.000  -2.683   0.000   0.000
  0.000  -0.000  -0.000   2.248  -0.001   0.000  -2.685   0.001
 -0.000   0.000  -0.000  -0.001   2.246   0.000   0.001  -2.683
 -0.000   0.000  -2.683   0.000   0.000   3.172  -0.000  -0.000
 -0.000   0.000   0.000  -2.685   0.001  -0.000   3.173  -0.002
  0.000  -0.000   0.000   0.001  -2.683  -0.000  -0.002   3.171
 -0.000   0.000   0.000  -0.000   0.000  -0.001   0.000  -0.000
 -0.000   0.000   0.001   0.000  -0.000  -0.002  -0.000   0.000
  0.001  -0.000   0.000  -0.001   0.001  -0.000   0.001  -0.001
 -0.001   0.000  -0.000   0.001   0.001   0.000  -0.001  -0.001
 -0.000   0.000   0.000  -0.000  -0.001  -0.000   0.000   0.001
 total augmentation occupancy for first ion, spin component:           1
  1.912  -0.137   0.000   0.000  -0.000   0.000   0.000  -0.000  -0.000  -0.000   0.001  -0.001  -0.000
 -0.137   0.119   0.001   0.000  -0.000  -0.001  -0.001   0.001  -0.000   0.001  -0.003   0.004   0.002
  0.000   0.001   2.017  -0.000  -0.000   0.004  -0.000  -0.000   0.002   0.003   0.000  -0.000  -0.000
  0.000   0.000  -0.000   2.020  -0.003  -0.000   0.006  -0.002  -0.000   0.001  -0.003  -0.000  -0.001
 -0.000  -0.000  -0.000  -0.003   2.017  -0.000  -0.002   0.004   0.001  -0.000   0.000   0.001  -0.003
  0.000  -0.001   0.004  -0.000  -0.000   0.008   0.000  -0.000  -0.002  -0.003  -0.000   0.000  -0.000
  0.000  -0.001  -0.000   0.006  -0.002   0.000   0.007   0.001   0.000  -0.000   0.002  -0.001   0.001
 -0.000   0.001  -0.000  -0.002   0.004  -0.000   0.001   0.009  -0.000   0.000  -0.001  -0.001   0.003
 -0.000  -0.000   0.002  -0.000   0.001  -0.002   0.000  -0.000   0.007   0.002   0.000   0.000   0.000
 -0.000   0.001   0.003   0.001  -0.000  -0.003  -0.000   0.000   0.002   0.005  -0.000   0.000  -0.000
  0.001  -0.003   0.000  -0.003   0.000  -0.000   0.002  -0.001   0.000  -0.000   0.005  -0.002  -0.001
 -0.001   0.004  -0.000  -0.000   0.001   0.000  -0.001  -0.001   0.000   0.000  -0.002   0.004   0.001
 -0.000   0.002  -0.000  -0.001  -0.003  -0.000   0.001   0.003   0.000  -0.000  -0.001   0.001   0.004


------------------------ aborting loop because EDIFF is reached ----------------------------------------





 total charge     

# of ion       s       p       d       tot
------------------------------------------
    1        1.786   4.717   0.018   6.521
    2        1.786   4.717   0.018   6.520
    3        1.785   4.716   0.017   6.518
    4        1.786   4.716   0.019   6.521
    5        1.786   4.717   0.018   6.520
    6        1.785   4.717   0.017   6.519
    7        1.785   4.716   0.018   6.520
    8        1.786   4.717   0.018   6.522
    9        1.554   0.423   9.835  11.812
   10        1.534   0.428   9.830  11.793
   11        1.554   0.418   9.834  11.806
   12        1.553   0.410   9.832  11.795
   13        1.554   0.415   9.833  11.801
   14        1.530   0.438   9.831  11.798
   15        1.554   0.418   9.834  11.805
   16        1.536   0.498   9.838  11.873
   17        1.614   3.283   0.007   4.904
   18        1.614   3.281   0.006   4.902
   19        1.615   3.286   0.007   4.908
   20        1.617   3.270   0.007   4.894
   21        1.615   3.288   0.007   4.910
   22        1.614   3.283   0.007   4.904
   23        1.614   3.279   0.006   4.899
   24        1.614   3.281   0.006   4.901
   25        1.617   3.267   0.007   4.892
   26        1.614   3.277   0.006   4.898
   27        1.614   3.280   0.006   4.900
   28        1.614   3.279   0.006   4.899
   29        1.614   3.282   0.006   4.902
   30        1.615   3.286   0.007   4.907
   31        1.615   3.278   0.006   4.899
   32        1.614   3.286   0.006   4.907
   33        1.614   3.277   0.005   4.896
   34        1.614   3.279   0.006   4.900
   35        1.614   3.282   0.006   4.902
   36        1.614   3.283   0.006   4.903
   37        1.614   3.279   0.006   4.899
   38        1.614   3.278   0.006   4.898
   39        1.619   3.290   0.011   4.920
--------------------------------------------------
tot         63.790 116.637  78.961 259.388

    CHARGE:  cpu time    0.3960: real time    0.3960
    FORLOC:  cpu time    0.0113: real time    0.0113
    FORNL :  cpu time    1.9102: real time    1.9105
    STRESS:  cpu time   49.7833: real time   49.7854
    FORCOR:  cpu time    0.2422: real time    0.2422
    FORHAR:  cpu time    0.0278: real time    0.0278
    MIXING:  cpu time    0.0022: real time    0.0022
    OFIELD:  cpu time    0.0001: real time    0.0001

  FORCE on cell =-STRESS in cart. coord.  units (eV):
  Direction    XX          YY          ZZ          XY          YZ          ZX
  --------------------------------------------------------------------------------------
  Alpha Z   872.70584   872.70584   872.70584
  Ewald   -5909.23259 -5885.12278 -6131.08112  -120.73231   -80.37271  -107.89029
  Hartree  2545.56919  2521.46021  2398.42437   -66.41191   -43.95761   -80.49119
  E(xc)   -1449.38297 -1449.33136 -1449.53752    -0.12389    -0.09835    -0.02562
  Local   -3028.43334 -3025.46114 -2660.69882   186.85955   124.32780   189.40254
  n-local  1749.44364  1750.48419  1747.27319    -2.77017    -1.72116    -0.13646
  augment   818.14169   817.29806   817.18929    -0.28523    -0.20471    -0.59057
  Kinetic  4395.76078  4395.12091  4399.96663     1.98950     0.87881     0.09821
  Fock        0.00000     0.00000     0.00000     0.00000     0.00000     0.00000
  -------------------------------------------------------------------------------------
  Total      -5.42776    -2.84608    -5.75814    -1.47446    -1.14793     0.36663
  in kB      -5.45188    -2.85873    -5.78373    -1.48101    -1.15303     0.36825
  external pressure =       -4.70 kB  Pullay stress =        0.00 kB


 VOLUME and BASIS-vectors are now :
 -----------------------------------------------------------------------------
  energy-cutoff  :      300.00
  volume of cell :     1595.09
      direct lattice vectors                 reciprocal lattice vectors
     8.456489000  0.000000000  8.040301000     0.059126193 -0.000000000  0.062186727
     0.000000000 11.729847000  0.000000000     0.000000000  0.085252604 -0.000000000
    -8.456489000  0.000000000  8.040301000    -0.059126193  0.000000000  0.062186727

  length of vectors
    11.668703715 11.729847000 11.668703715     0.085808482  0.085252604  0.085808482


 FORCES acting on ions
    electron-ion (+dipol)            ewald-force                    non-local-force                 convergence-correction
 -----------------------------------------------------------------------------------------------
   0.362E+02 -.146E+02 -.374E+02   -.361E+02 0.146E+02 0.374E+02   -.527E-01 0.408E-01 0.469E-01   0.803E-04 0.172E-04 0.299E-04
   0.202E+02 -.116E+02 0.124E+02   -.202E+02 0.115E+02 -.122E+02   -.504E-01 0.898E-01 -.220E+00   -.817E-04 0.837E-04 -.760E-04
   0.390E+02 0.459E+01 -.298E+02   -.385E+02 -.455E+01 0.296E+02   -.497E+00 -.556E-01 0.116E+00   0.443E-04 -.119E-03 -.847E-04
   -.569E+02 0.325E+02 0.340E+01   0.568E+02 -.322E+02 -.319E+01   0.109E+00 -.273E+00 -.208E+00   -.887E-04 0.397E-04 0.113E-03
   0.334E-02 -.407E+02 0.343E+02   -.740E-01 0.404E+02 -.343E+02   0.745E-01 0.300E+00 -.495E-01   0.707E-04 -.438E-04 0.162E-03
   0.476E+02 -.723E+01 0.142E+01   -.474E+02 0.715E+01 -.156E+01   -.199E+00 0.888E-01 0.132E+00   -.243E-04 0.764E-04 -.624E-04
   -.463E+02 0.731E+01 0.814E+02   0.461E+02 -.730E+01 -.809E+02   0.203E+00 -.305E-01 -.530E+00   -.647E-04 -.172E-03 -.344E-05
   -.956E+01 0.165E+02 -.261E+02   0.949E+01 -.165E+02 0.262E+02   0.784E-01 -.858E-02 -.429E-01   0.103E-03 -.287E-05 -.476E-04
   -.176E+01 -.500E+01 0.256E+01   0.162E+01 0.496E+01 -.250E+01   0.138E+00 0.511E-01 -.585E-01   0.132E-04 -.916E-04 -.414E-05
   -.166E+02 0.107E+03 -.295E+02   0.167E+02 -.112E+03 0.303E+02   -.137E+00 0.535E+01 -.960E+00   -.888E-04 0.937E-03 -.173E-03
   -.311E+01 0.364E+01 0.446E+01   0.288E+01 -.338E+01 -.492E+01   0.226E+00 -.224E+00 0.461E+00   -.231E-06 -.400E-04 -.309E-04
   0.113E+02 0.414E+01 0.117E+02   -.120E+02 -.360E+01 -.123E+02   0.740E+00 -.508E+00 0.663E+00   -.109E-04 -.387E-04 0.414E-04
   -.586E+01 -.449E+01 0.147E+02   0.639E+01 0.442E+01 -.153E+02   -.532E+00 0.872E-01 0.534E+00   0.947E-04 0.666E-04 0.205E-04
   -.571E+02 -.174E+02 -.965E+02   0.604E+02 0.184E+02 0.101E+03   -.340E+01 -.959E+00 -.500E+01   -.551E-03 -.444E-04 -.792E-03
   -.122E+02 0.509E+01 -.305E+01   0.121E+02 -.508E+01 0.319E+01   0.337E-01 -.102E-01 -.134E+00   -.582E-04 0.102E-03 -.547E-04
   -.101E+01 -.157E+02 -.992E+01   0.574E+01 0.110E+02 0.122E+02   -.406E+01 0.375E+01 -.185E+01   0.162E-03 -.260E-03 0.215E-03
   -.148E+01 0.781E+01 0.443E+02   0.138E+01 -.782E+01 -.446E+02   0.950E-01 0.280E-01 0.321E+00   0.318E-04 -.669E-04 0.143E-04
   0.126E+02 0.126E+02 0.246E+02   -.125E+02 -.126E+02 -.248E+02   -.600E-01 0.392E-02 0.245E+00   -.662E-04 -.622E-05 -.348E-04
   -.162E+02 -.731E+01 0.352E+02   0.164E+02 0.731E+01 -.354E+02   -.121E+00 -.777E-02 0.247E+00   -.110E-04 0.405E-04 -.131E-04
   0.109E+02 -.285E+02 0.466E+02   -.109E+02 0.287E+02 -.470E+02   -.626E-01 -.646E+00 0.354E+00   0.601E-04 0.356E-04 0.911E-04
   0.145E+02 0.647E+01 -.287E+02   -.147E+02 -.646E+01 0.288E+02   0.191E+00 -.488E-02 -.137E+00   0.374E-05 -.392E-04 -.154E-04
   -.646E+01 -.505E+01 -.352E+02   0.656E+01 0.506E+01 0.355E+02   -.873E-01 -.166E-01 -.273E+00   -.160E-06 0.657E-04 -.194E-04
   -.202E+02 -.150E+02 -.453E+02   0.203E+02 0.149E+02 0.456E+02   -.571E-01 0.534E-01 -.293E+00   -.295E-04 -.251E-04 -.629E-04
   -.381E+02 0.781E+01 0.336E+02   0.384E+02 -.793E+01 -.338E+02   -.226E+00 0.116E+00 0.207E+00   0.289E-04 0.483E-04 0.906E-04
   0.729E+01 -.202E+01 0.394E+02   -.735E+01 0.180E+01 -.399E+02   0.376E+00 0.280E+00 0.867E+00   -.107E-03 0.425E-04 -.773E-05
   0.391E+02 -.249E+02 0.711E+01   -.394E+02 0.252E+02 -.732E+01   0.387E+00 -.278E+00 0.104E+00   0.324E-04 -.234E-04 0.451E-04
   -.131E+01 -.179E+02 0.358E+02   0.108E+01 0.181E+02 -.360E+02   0.231E+00 -.145E+00 0.213E+00   -.116E-03 0.333E-04 -.103E-03
   -.381E+02 0.416E+01 -.123E+02   0.383E+02 -.402E+01 0.126E+02   -.219E+00 -.139E+00 -.295E+00   -.929E-05 0.372E-04 -.765E-05
   -.106E+02 -.183E+02 -.364E+02   0.108E+02 0.184E+02 0.366E+02   -.216E+00 -.168E+00 -.194E+00   0.117E-04 -.246E-04 0.330E-04
   0.273E+02 0.112E+02 -.241E+02   -.275E+02 -.113E+02 0.244E+02   0.194E+00 0.125E+00 -.293E+00   -.115E-04 -.379E-04 -.523E-04
   0.594E+01 0.294E+02 -.313E+02   -.614E+01 -.297E+02 0.316E+02   0.187E+00 0.275E+00 -.297E+00   0.191E-04 0.383E-04 -.729E-05
   -.250E+02 -.874E+01 0.168E+02   0.252E+02 0.883E+01 -.169E+02   -.168E+00 -.815E-01 0.144E+00   0.288E-04 -.329E-04 0.416E-04
   -.652E+01 0.136E+01 0.224E+02   0.678E+01 -.121E+01 -.226E+02   -.243E+00 -.146E+00 0.156E+00   -.493E-04 0.327E-04 0.119E-04
   0.279E+02 0.320E+02 -.118E+01   -.280E+02 -.322E+02 0.959E+00   0.124E+00 0.196E+00 0.207E+00   0.491E-05 0.947E-05 -.343E-04
   0.112E+02 0.248E+02 0.455E+02   -.114E+02 -.250E+02 -.458E+02   0.166E+00 0.180E+00 0.244E+00   -.666E-06 -.369E-04 -.315E-04
   0.272E+02 -.102E+02 -.216E+02   -.274E+02 0.104E+02 0.218E+02   0.212E+00 -.124E+00 -.246E+00   -.249E-04 0.232E-04 -.770E-04
   -.195E+02 0.214E+01 -.834E+01   0.195E+02 -.229E+01 0.865E+01   -.860E-01 0.105E+00 -.189E+00   0.645E-04 0.484E-04 -.443E-06
   -.135E+02 0.146E+02 -.545E+02   0.138E+02 -.148E+02 0.547E+02   -.207E+00 0.171E+00 -.200E+00   0.131E-04 0.325E-04 -.447E-04
   0.760E+02 -.878E+02 0.195E+02   -.769E+02 0.892E+02 -.199E+02   0.193E-01 -.931E-01 -.270E-01   0.108E-03 -.890E-04 0.111E-03
 -----------------------------------------------------------------------------------------------
   0.689E+01 -.736E+01 0.622E+01   0.000E+00 -.426E-13 -.782E-13   -.689E+01 0.738E+01 -.623E+01   -.419E-03 0.616E-03 -.820E-03


 POSITION                                       TOTAL-FORCE (eV/Angst)
 -----------------------------------------------------------------------------------
      0.57288      2.89448      3.73509         0.002771      0.007652      0.012146
      0.52345      2.87242     11.99527        -0.001995      0.012394     -0.013834
      3.85400      8.82889      7.90732         0.011234     -0.021921     -0.003667
     -4.87854      8.85364      7.86786         0.006849     -0.001171      0.000972
     -3.84306      2.79157      8.33269         0.018382     -0.031543      0.012972
      4.80514      2.91417      8.18434        -0.006300      0.017471     -0.006901
     -0.61583      8.78991     12.39775        -0.013445     -0.011388      0.008086
     -0.32393      8.84332      3.92728         0.003597      0.010663      0.008690
     -0.02759      0.01097     16.04776         0.001993      0.005922      0.000404
     -0.04559      0.04215      8.00109        -0.064434      0.148606     -0.101661
      4.22407     11.69277      4.02322        -0.005297      0.021173      0.006140
     -4.22425      0.04398      4.02350         0.012676      0.019191      0.016481
      4.22917      5.84225      4.02570        -0.009943      0.003788      0.006750
     -4.20074      5.90923      4.05281        -0.073557     -0.036092     -0.173576
      0.00019      5.85061     16.07997        -0.005846     -0.009994      0.001623
      0.11527      5.72209      8.11814         0.680898     -0.941213      0.392208
     -4.18058      8.76946     11.51772         0.005079      0.016390     -0.001417
      4.40508      8.83337     11.56268        -0.002545      0.001177      0.002714
      0.01415      2.93318     15.59818         0.000836     -0.001171      0.001649
     -0.23338      2.86584      7.37165        -0.050746     -0.402209     -0.026932
     -0.10499      8.79378      0.32006        -0.000945      0.000588     -0.007096
      4.15740      2.90497      4.50106        -0.001855     -0.021208      0.000342
     -4.27968      3.00385      4.63527         0.001711     -0.003021      0.003621
     -5.91604      5.52951      9.60149        -0.011983     -0.000031     -0.013345
      2.66472      5.56694      9.71904         0.322773      0.072902      0.337421
      1.74513      6.25610      5.66129         0.104699     -0.003122     -0.101835
      1.72058      6.27771     13.63629         0.007758      0.008151     -0.003536
     -1.68530      0.32750     10.47932         0.005662     -0.004685     -0.008461
     -1.73728      0.42043      2.40838        -0.006143     -0.005623      0.007298
      5.90026     11.38878      6.44506         0.009630      0.000610     -0.000536
     -2.59010     11.37786      6.48205        -0.012570      0.018709     -0.010212
     -6.02237      0.25512      9.67380        -0.001742     -0.002109      0.003756
      2.44921      0.43302      9.60875        -0.008659     -0.006060     -0.003850
      1.73721     11.25759      5.67972        -0.010312     -0.006742      0.009049
      1.69597     11.33015     13.62884         0.000137     -0.007036     -0.005387
      5.91623      6.18618      6.46927         0.013378      0.008077      0.010417
     -1.66233      5.41409     10.45229        -0.045425     -0.033806      0.093348
     -1.67554      5.49195      2.49123        -0.013977      0.003290      0.013926
     -1.36018      7.70342      7.33151        -0.862341      1.173393     -0.467768
 -----------------------------------------------------------------------------------
    total drift:                               -0.002939      0.021015     -0.006621


--------------------------------------------------------------------------------------------------------



  FREE ENERGIE OF THE ION-ELECTRON SYSTEM (eV)
  ---------------------------------------------------
  free  energy   TOTEN  =     -1409.31938770 eV

  energy  without entropy=    -1409.31938770  energy(sigma->0) =    -1409.31938770



--------------------------------------------------------------------------------------------------------


    POTLOK:  cpu time    1.4345: real time    1.4345


--------------------------------------------------------------------------------------------------------


 stress matrix after NEB project (eV)
     -5.42776     -1.47461      0.36663
     -1.47446     -2.84608     -1.14793
      0.36662     -1.14793     -5.75814
  FORCES: max atom, RMS     1.529474    0.333841
  FORCE total and by dimension    2.084837    1.173393
  Stress total and by dimension    8.830048    5.758143
     LOOP+:  cpu time  503.2519: real time  504.1631
    4ORBIT:  cpu time    0.0000: real time    0.0000



 total charge     

# of ion       s       p       d       tot
------------------------------------------
    1        1.786   4.717   0.018   6.521
    2        1.786   4.717   0.018   6.520
    3        1.785   4.716   0.017   6.518
    4        1.786   4.716   0.019   6.521
    5        1.786   4.717   0.018   6.520
    6        1.785   4.717   0.017   6.519
    7        1.785   4.716   0.018   6.520
    8        1.786   4.717   0.018   6.522
    9        1.554   0.423   9.835  11.812
   10        1.534   0.428   9.830  11.793
   11        1.554   0.418   9.834  11.806
   12        1.553   0.410   9.832  11.795
   13        1.554   0.415   9.833  11.801
   14        1.530   0.438   9.831  11.798
   15        1.554   0.418   9.834  11.805
   16        1.536   0.498   9.838  11.873
   17        1.614   3.283   0.007   4.904
   18        1.614   3.281   0.006   4.902
   19        1.615   3.286   0.007   4.908
   20        1.617   3.270   0.007   4.894
   21        1.615   3.288   0.007   4.910
   22        1.614   3.283   0.007   4.904
   23        1.614   3.279   0.006   4.899
   24        1.614   3.281   0.006   4.901
   25        1.617   3.267   0.007   4.892
   26        1.614   3.277   0.006   4.898
   27        1.614   3.280   0.006   4.900
   28        1.614   3.279   0.006   4.899
   29        1.614   3.282   0.006   4.902
   30        1.615   3.286   0.007   4.907
   31        1.615   3.278   0.006   4.899
   32        1.614   3.286   0.006   4.907
   33        1.614   3.277   0.005   4.896
   34        1.614   3.279   0.006   4.900
   35        1.614   3.282   0.006   4.902
   36        1.614   3.283   0.006   4.903
   37        1.614   3.279   0.006   4.899
   38        1.614   3.278   0.006   4.898
   39        1.619   3.290   0.011   4.920
--------------------------------------------------
tot         63.790 116.637  78.961 259.388


 total amount of memory used by VASP MPI-rank0    60651. kBytes
=======================================================================

   base      :      30000. kBytes
   nonlr-proj:       6486. kBytes
   fftplans  :       8423. kBytes
   grid      :       7465. kBytes
   one-center:         77. kBytes
   wavefun   :       8200. kBytes

  
  
 General timing and accounting informations for this job:
 ========================================================
  
                  Total CPU time used (sec):      515.576
                            User time (sec):      513.932
                          System time (sec):        1.644
                         Elapsed time (sec):      516.799
  
                   Maximum memory used (kb):       78348.
                   Average memory used (kb):           0.
  
                          Minor page faults:        20999
                          Major page faults:            0
                 Voluntary context switches:         2031
