 running on   64 total cores
 distrk:  each k-point on   64 cores,    1 groups
 distr:  one band on    8 cores,    8 groups
 using from now: INCAR     
 vasp.5.4.4.18Apr17-6-g9f103f2a35 (build Jun 22 2020 09:27:21) complex           
 POSCAR found type information on POSCAR  Cs Pb Br
 POSCAR found :  3 types and      39 ions
 scaLAPACK will be used
 LDA part: xc-table for Pade appr. of Perdew
 POSCAR found type information on POSCAR  Cs Pb Br
 POSCAR found :  3 types and      39 ions
 POSCAR, INCAR and KPOINTS ok, starting setup
 FFT: planning ...
 WAVECAR not read
 entering main loop
       N       E                     dE             d eps       ncg     rms          rms(c)
DAV:   1     0.132997673865E+04    0.13300E+04   -0.11059E+05  3464   0.972E+02
DAV:   2    -0.111489774524E+04   -0.24449E+04   -0.23615E+04  4088   0.300E+02
DAV:   3    -0.147470359330E+04   -0.35981E+03   -0.35791E+03  4432   0.137E+02
DAV:   4    -0.148666218865E+04   -0.11959E+02   -0.11923E+02  3888   0.329E+01
DAV:   5    -0.148723313799E+04   -0.57095E+00   -0.57069E+00  4448   0.560E+00BRMIX: very serious problems
 the old and the new charge density differ
 old charge density:   345.00000 new  344.00000
    0.102E+01
DAV:   6    -0.140958829286E+04    0.77645E+02   -0.23687E+01  4304   0.310E+01    0.728E+00
DAV:   7    -0.140907352350E+04    0.51477E+00   -0.84696E+00  4088   0.556E+00    0.372E+00
DAV:   8    -0.140924643381E+04   -0.17291E+00   -0.44016E-01  3992   0.202E+00    0.215E+00
DAV:   9    -0.140931166525E+04   -0.65231E-01   -0.17563E-01  3824   0.134E+00    0.459E-01
DAV:  10    -0.140931511222E+04   -0.34470E-02   -0.23538E-02  4592   0.445E-01    0.324E-01
DAV:  11    -0.140931707405E+04   -0.19618E-02   -0.29620E-03  3768   0.161E-01    0.149E-01
DAV:  12    -0.140931975774E+04   -0.26837E-02   -0.51276E-03  3616   0.189E-01    0.102E-01
DAV:  13    -0.140931942529E+04    0.33245E-03   -0.14213E-03  4408   0.108E-01    0.514E-02
DAV:  14    -0.140931935295E+04    0.72337E-04   -0.44583E-04  3888   0.405E-02    0.254E-02
DAV:  15    -0.140931934781E+04    0.51473E-05   -0.29448E-05  3792   0.137E-02    0.144E-02
DAV:  16    -0.140931939224E+04   -0.44432E-04   -0.35200E-05  3784   0.164E-02    0.633E-03
DAV:  17    -0.140931940398E+04   -0.11742E-04   -0.93180E-06  3936   0.780E-03    0.408E-03
DAV:  18    -0.140931939507E+04    0.89097E-05   -0.14528E-06  2504   0.304E-03    0.173E-03
DAV:  19    -0.140931939125E+04    0.38165E-05   -0.72213E-07  2384   0.214E-03    0.121E-03
DAV:  20    -0.140931938925E+04    0.20063E-05   -0.54477E-07  2192   0.149E-03    0.918E-04
DAV:  21    -0.140931938741E+04    0.18370E-05   -0.11911E-07  1952   0.101E-03    0.932E-04
DAV:  22    -0.140931938770E+04   -0.28588E-06   -0.57320E-08  1936   0.738E-04
   1 F= -.14093194E+04 E0= -.14093194E+04  d E =-.318241E-54
Application 1921753 resources: utime ~32909s, stime ~130s, Rss ~78348, inblocks ~1334, outblocks ~111112
