<?xml version="1.0" encoding="ISO-8859-1"?>
<modeling>
 <generator>
  <i name="program" type="string">vasp </i>
  <i name="version" type="string">5.4.4.18Apr17-6-g9f103f2a35  </i>
  <i name="subversion" type="string">(build Jun 22 2020 09:27:21) complex            parallel </i>
  <i name="platform" type="string">tx2_gcc-7.3_libsci-18.07_cray-fftw-3.3.8 </i>
  <i name="date" type="string">2021 10 12 </i>
  <i name="time" type="string">02:54:17 </i>
 </generator>
 <incar>
  <i type="string" name="SYSTEM"> CsPbBr3 cubic bulk</i>
  <i type="string" name="PREC">accurate</i>
  <i type="string" name="ALGO"> NORMAL   ! Electronic minimisation algo</i>
  <i type="logical" name="ADDGRID"> T  </i>
  <i type="int" name="ISPIN">     1</i>
  <i type="int" name="NELM">   200</i>
  <i type="int" name="IBRION">     2</i>
  <i name="EDIFF">      0.00000100</i>
  <i name="EDIFFG">     -0.01000000</i>
  <i type="int" name="NSW">     0</i>
  <i type="int" name="ISIF">     2</i>
  <i type="int" name="ISYM">     0</i>
  <i name="ENCUT">    300.00000000</i>
  <i name="POTIM">      0.50000000</i>
  <i name="NUPDOWN">      0.00000000</i>
  <i name="NELECT">    344.00000000</i>
  <i type="string" name="LREAL"> AUTO</i>
  <i type="int" name="ISMEAR">     0</i>
  <i name="SIGMA">      0.01000000</i>
  <i type="logical" name="LWAVE"> F  </i>
  <i type="logical" name="LCHARG"> F  </i>
  <i type="logical" name="LVHAR"> T  </i>
  <i type="int" name="LORBIT">    10</i>
  <i type="logical" name="LASPH"> T  </i>
  <v type="int" name="KPOINT_BSE">    -1     0     0     0</v>
  <i type="int" name="NELM">   200</i>
  <i type="string" name="METAGGA"> SCAN       ! PBE exchange-correlation</i>
  <i type="logical" name="LASPH"> T  </i>
 </incar>
 <structure name="primitive_cell" >
  <crystal>
   <varray name="basis" >
    <v>       8.45648900       0.00000000       8.04030100 </v>
    <v>       0.00000000      11.72984700       0.00000000 </v>
    <v>      -8.45648900       0.00000000       8.04030100 </v>
   </varray>
   <i name="volume">   1595.08833419 </i>
   <varray name="rec_basis" >
    <v>       0.05912619      -0.00000000       0.06218673 </v>
    <v>       0.00000000       0.08525260      -0.00000000 </v>
    <v>      -0.05912619       0.00000000       0.06218673 </v>
   </varray>
  </crystal>
  <varray name="positions" >
   <v>       0.26614500       0.24676200       0.19840100 </v>
   <v>       0.04705100       0.03584300       0.25248800 </v>
   <v>       0.05585300       0.46820300       0.25399000 </v>
   <v>      -0.47428300       0.24765600       0.03409500 </v>
   <v>       0.44462000       0.24432000       0.47221800 </v>
   <v>       0.24550200       0.02175000      -0.04233800 </v>
   <v>       0.24729200       0.47140500      -0.05312200 </v>
   <v>       0.45524000      -0.46665100       0.24887400 </v>
   <v>       0.45591800      -0.04026100       0.25048900 </v>
   <v>      -0.02916400       0.25006100      -0.03083700 </v>
   <v>       0.49994400      -0.00316100       0.00043800 </v>
   <v>      -0.49960000       0.49806700       0.00029000 </v>
   <v>      -0.00367400       0.00093500      -0.00041100 </v>
   <v>      -0.00002800       0.49878000      -0.00005000 </v>
   <v>       0.03521100       0.25608600      -0.45870700 </v>
   <v>       0.49486600       0.00359300      -0.49974300 </v>
   <v>      -0.48834400       0.48782300       0.49802500 </v>
   <v>       0.24995500      -0.03000800      -0.44376000 </v>
   <v>       0.29095700       0.23798900      -0.25459200 </v>
   <v>      -0.20693300       0.24844100       0.22484800 </v>
   <v>       0.00044400       0.00374900       0.49997200 </v>
   <v>       0.00365700      -0.49622300      -0.49959500 </v>
   <v>       0.22507200      -0.24608400       0.26337700 </v>
   <v>       0.37550000      -0.34326300      -0.46365500 </v>
   <v>      -0.25765100       0.03691600       0.45272400 </v>
   <v>       0.01369600      -0.25030700       0.02611100 </v>
   <v>      -0.25034300      -0.02907700       0.05193700 </v>
   <v>      -0.44797100       0.02792000      -0.24868000 </v>
   <v>      -0.44829300       0.46156500      -0.25171900 </v>
   <v>      -0.24789300      -0.47261200       0.05249900 </v>
   <v>      -0.23805000       0.47459600       0.44684000 </v>
   <v>       0.46906700      -0.25238100      -0.03656900 </v>
   <v>      -0.05219100      -0.03407500      -0.25274300 </v>
   <v>      -0.05027200      -0.46480900      -0.25373500 </v>
   <v>      -0.02049900      -0.24693200       0.45859000 </v>
   <v>       0.20082700      -0.24520400      -0.22227400 </v>
   <v>      -0.22310400       0.24488100      -0.28500300 </v>
   <v>      -0.28039700      -0.24731400       0.26385800 </v>
   <v>      -0.26543600      -0.25063700      -0.19261300 </v>
  </varray>
 </structure>
 <varray name="primitive_index" >
  <v type="int" >        1 </v>
  <v type="int" >       29 </v>
  <v type="int" >       38 </v>
  <v type="int" >       22 </v>
  <v type="int" >       20 </v>
  <v type="int" >       32 </v>
  <v type="int" >       24 </v>
  <v type="int" >       26 </v>
  <v type="int" >       34 </v>
  <v type="int" >       19 </v>
  <v type="int" >       11 </v>
  <v type="int" >       13 </v>
  <v type="int" >        9 </v>
  <v type="int" >       15 </v>
  <v type="int" >       23 </v>
  <v type="int" >       10 </v>
  <v type="int" >       16 </v>
  <v type="int" >       31 </v>
  <v type="int" >        5 </v>
  <v type="int" >        6 </v>
  <v type="int" >       12 </v>
  <v type="int" >       14 </v>
  <v type="int" >        8 </v>
  <v type="int" >       39 </v>
  <v type="int" >       33 </v>
  <v type="int" >       21 </v>
  <v type="int" >       30 </v>
  <v type="int" >       28 </v>
  <v type="int" >       37 </v>
  <v type="int" >       36 </v>
  <v type="int" >       25 </v>
  <v type="int" >       17 </v>
  <v type="int" >       35 </v>
  <v type="int" >       27 </v>
  <v type="int" >       18 </v>
  <v type="int" >        4 </v>
  <v type="int" >        2 </v>
  <v type="int" >        3 </v>
  <v type="int" >        7 </v>
 </varray>
 <kpoints>
  <generation param="Gamma">
   <v type="int" name="divisions">       2        2        2 </v>
   <v name="usershift">      0.00000000       0.00000000       0.00000000 </v>
   <v name="genvec1">      0.50000000       0.00000000       0.00000000 </v>
   <v name="genvec2">      0.00000000       0.50000000       0.00000000 </v>
   <v name="genvec3">      0.00000000       0.00000000       0.50000000 </v>
   <v name="shift">      0.00000000       0.00000000       0.00000000 </v>
  </generation>
  <varray name="kpointlist" >
   <v>       0.00000000       0.00000000       0.00000000 </v>
   <v>       0.50000000       0.00000000       0.00000000 </v>
   <v>       0.00000000       0.50000000       0.00000000 </v>
   <v>       0.50000000       0.50000000       0.00000000 </v>
   <v>       0.00000000       0.00000000       0.50000000 </v>
   <v>       0.50000000       0.00000000       0.50000000 </v>
   <v>       0.00000000       0.50000000       0.50000000 </v>
   <v>       0.50000000       0.50000000       0.50000000 </v>
  </varray>
  <varray name="weights" >
   <v>       0.12500000 </v>
   <v>       0.12500000 </v>
   <v>       0.12500000 </v>
   <v>       0.12500000 </v>
   <v>       0.12500000 </v>
   <v>       0.12500000 </v>
   <v>       0.12500000 </v>
   <v>       0.12500000 </v>
  </varray>
 </kpoints>
 <parameters>
  <separator name="general" >
   <i type="string" name="SYSTEM">CsPbBr3 cubic bulk</i>
   <i type="logical" name="LCOMPAT"> F  </i>
  </separator>
  <separator name="electronic" >
   <i type="string" name="PREC">accura</i>
   <i name="ENMAX">    300.00000000</i>
   <i name="ENAUG">    503.85200000</i>
   <i name="EDIFF">      0.00000100</i>
   <i type="int" name="IALGO">    38</i>
   <i type="int" name="IWAVPR">    10</i>
   <i type="int" name="NBANDS">   208</i>
   <i name="NELECT">    344.00000000</i>
   <i type="int" name="TURBO">     0</i>
   <i type="int" name="IRESTART">     0</i>
   <i type="int" name="NREBOOT">     0</i>
   <i type="int" name="NMIN">     0</i>
   <i name="EREF">      0.00000000</i>
   <separator name="electronic smearing" >
    <i type="int" name="ISMEAR">     0</i>
    <i name="SIGMA">      0.01000000</i>
    <i name="KSPACING">      0.50000000</i>
    <i type="logical" name="KGAMMA"> T  </i>
   </separator>
   <separator name="electronic projectors" >
    <i type="logical" name="LREAL"> T  </i>
    <v name="ROPT">     -0.00025000     -0.00025000     -0.00025000</v>
    <i type="int" name="LMAXPAW">  -100</i>
    <i type="int" name="LMAXMIX">     2</i>
    <i type="logical" name="NLSPLINE"> F  </i>
   </separator>
   <separator name="electronic startup" >
    <i type="int" name="ISTART">     0</i>
    <i type="int" name="ICHARG">     2</i>
    <i type="int" name="INIWAV">     1</i>
   </separator>
   <separator name="electronic spin" >
    <i type="int" name="ISPIN">     1</i>
    <i type="logical" name="LNONCOLLINEAR"> F  </i>
    <v name="MAGMOM">      0.00000000      0.00000000      0.00000000      0.00000000      0.00000000      0.00000000      0.00000000      0.00000000      0.00000000      0.00000000      0.00000000      0.00000000      0.00000000      0.00000000      0.00000000      0.00000000      0.00000000      0.00000000      0.00000000      0.00000000
      0.00000000      0.00000000      0.00000000      0.00000000      0.00000000      0.00000000      0.00000000      0.00000000      0.00000000      0.00000000      0.00000000      0.00000000      0.00000000      0.00000000      0.00000000      0.00000000      0.00000000      0.00000000      0.00000000</v>
    <i name="NUPDOWN">      0.00000000</i>
    <i type="logical" name="LSORBIT"> F  </i>
    <v name="SAXIS">      0.00000000      0.00000000      1.00000000</v>
    <i type="logical" name="LSPIRAL"> F  </i>
    <v name="QSPIRAL">      0.00000000      0.00000000      0.00000000</v>
    <i type="logical" name="LZEROZ"> F  </i>
   </separator>
   <separator name="electronic exchange-correlation" >
    <i type="logical" name="LASPH"> T  </i>
    <i type="logical" name="LMETAGGA"> F  </i>
   </separator>
   <separator name="electronic convergence" >
    <i type="int" name="NELM">   200</i>
    <i type="int" name="NELMDL">    -5</i>
    <i type="int" name="NELMIN">     2</i>
    <i name="ENINI">    300.00000000</i>
    <separator name="electronic convergence detail" >
     <i type="logical" name="LDIAG"> T  </i>
     <i type="logical" name="LSUBROT"> F  </i>
     <i name="WEIMIN">      0.00000000</i>
     <i name="EBREAK">      0.00000000</i>
     <i name="DEPER">      0.30000000</i>
     <i type="int" name="NRMM">     4</i>
     <i name="TIME">      0.40000000</i>
    </separator>
   </separator>
   <separator name="electronic mixer" >
    <i name="AMIX">      0.40000000</i>
    <i name="BMIX">      1.00000000</i>
    <i name="AMIN">      0.10000000</i>
    <i name="AMIX_MAG">      1.60000000</i>
    <i name="BMIX_MAG">      1.00000000</i>
    <separator name="electronic mixer details" >
     <i type="int" name="IMIX">     4</i>
     <i type="logical" name="MIXFIRST"> F  </i>
     <i type="int" name="MAXMIX">   -45</i>
     <i name="WC">    100.00000000</i>
     <i type="int" name="INIMIX">     1</i>
     <i type="int" name="MIXPRE">     1</i>
     <i type="int" name="MREMOVE">     5</i>
    </separator>
   </separator>
   <separator name="electronic dipolcorrection" >
    <i type="logical" name="LDIPOL"> F  </i>
    <i type="logical" name="LMONO"> F  </i>
    <i type="int" name="IDIPOL">     0</i>
    <i name="EPSILON">      1.00000000</i>
    <v name="DIPOL">   -100.00000000   -100.00000000   -100.00000000</v>
    <i name="EFIELD">      0.00000000</i>
   </separator>
  </separator>
  <separator name="grids" >
   <i type="int" name="NGX">    70</i>
   <i type="int" name="NGY">    70</i>
   <i type="int" name="NGZ">    70</i>
   <i type="int" name="NGXF">   140</i>
   <i type="int" name="NGYF">   140</i>
   <i type="int" name="NGZF">   140</i>
   <i type="logical" name="ADDGRID"> T  </i>
  </separator>
  <separator name="ionic" >
   <i type="int" name="NSW">     0</i>
   <i type="int" name="IBRION">    -1</i>
   <i type="int" name="MDALGO">     0</i>
   <i type="int" name="ISIF">     2</i>
   <i name="PSTRESS">      0.00000000</i>
   <i name="EDIFFG">     -0.01000000</i>
   <i type="int" name="NFREE">     1</i>
   <i name="POTIM">      0.50000000</i>
   <i name="SMASS">     -3.00000000</i>
   <i name="SCALEE">      1.00000000</i>
  </separator>
  <separator name="ionic md" >
   <i name="TEBEG">      0.00010000</i>
   <i name="TEEND">      0.00010000</i>
   <i type="int" name="NBLOCK">     1</i>
   <i type="int" name="KBLOCK">     1</i>
   <i type="int" name="NPACO">   256</i>
   <i name="APACO">     16.00000000</i>
  </separator>
  <separator name="symmetry" >
   <i type="int" name="ISYM">     0</i>
   <i name="SYMPREC">      0.00001000</i>
  </separator>
  <separator name="dos" >
   <i type="int" name="LORBIT">    10</i>
   <v name="RWIGS">     -1.00000000     -1.00000000     -1.00000000</v>
   <i type="int" name="NEDOS">   301</i>
   <i name="EMIN">     10.00000000</i>
   <i name="EMAX">    -10.00000000</i>
   <i name="EFERMI">      0.00000000</i>
  </separator>
  <separator name="writing" >
   <i type="int" name="NWRITE">     2</i>
   <i type="logical" name="LWAVE"> F  </i>
   <i type="logical" name="LDOWNSAMPLE"> F  </i>
   <i type="logical" name="LCHARG"> F  </i>
   <i type="logical" name="LPARD"> F  </i>
   <i type="logical" name="LVTOT"> F  </i>
   <i type="logical" name="LVHAR"> T  </i>
   <i type="logical" name="LELF"> F  </i>
   <i type="logical" name="LOPTICS"> F  </i>
   <v name="STM">      0.00000000      0.00000000      0.00000000      0.00000000      0.00000000      0.00000000      0.00000000</v>
  </separator>
  <separator name="performance" >
   <i type="int" name="NPAR">     8</i>
   <i type="int" name="NSIM">     4</i>
   <i type="int" name="NBLK">    -1</i>
   <i type="logical" name="LPLANE"> T  </i>
   <i type="logical" name="LSCALAPACK"> T  </i>
   <i type="logical" name="LSCAAWARE"> F  </i>
   <i type="logical" name="LSCALU"> F  </i>
   <i type="logical" name="LASYNC"> F  </i>
   <i type="logical" name="LORBITALREAL"> F  </i>
  </separator>
  <separator name="miscellaneous" >
   <i type="int" name="IDIOT">     3</i>
   <i type="int" name="ISPECIAL">     0</i>
   <i type="logical" name="LMUSIC"> F  </i>
   <v name="POMASS">    132.90000000    207.20000000     79.90400000</v>
   <v name="DARWINR">      0.00000000      0.00000000      0.00000000</v>
   <v name="DARWINV">      1.00000000      1.00000000      1.00000000</v>
   <i type="logical" name="LCORR"> T  </i>
  </separator>
  <i type="logical" name="GGA_COMPAT"> T  </i>
  <i type="logical" name="LBERRY"> F  </i>
  <i type="int" name="ICORELEVEL">     0</i>
  <i type="logical" name="LDAU"> F  </i>
  <i type="int" name="I_CONSTRAINED_M">     0</i>
  <separator name="electronic exchange-correlation" >
   <i type="string" name="GGA">--</i>
   <i type="int" name="VOSKOWN">     0</i>
   <i type="logical" name="LHFCALC"> F  </i>
   <i type="string" name="PRECFOCK"></i>
   <i type="logical" name="LSYMGRAD"> F  </i>
   <i type="logical" name="LHFONE"> F  </i>
   <i type="logical" name="LRHFCALC"> F  </i>
   <i type="logical" name="LTHOMAS"> F  </i>
   <i type="logical" name="LMODELHF"> F  </i>
   <i name="ENCUT4O">     -1.00000000</i>
   <i type="int" name="EXXOEP">     0</i>
   <i type="int" name="FOURORBIT">     0</i>
   <i name="AEXX">      0.00000000</i>
   <i name="HFALPHA">      0.00000000</i>
   <i name="MCALPHA">      0.00000000</i>
   <i name="ALDAX">      1.00000000</i>
   <i name="AGGAX">      1.00000000</i>
   <i name="ALDAC">      1.00000000</i>
   <i name="AGGAC">      1.00000000</i>
   <i type="int" name="NKREDX">     1</i>
   <i type="int" name="NKREDY">     1</i>
   <i type="int" name="NKREDZ">     1</i>
   <i type="logical" name="SHIFTRED"> F  </i>
   <i type="logical" name="ODDONLY"> F  </i>
   <i type="logical" name="EVENONLY"> F  </i>
   <i type="int" name="LMAXFOCK">     0</i>
   <i type="int" name="NMAXFOCKAE">     0</i>
   <i type="logical" name="LFOCKAEDFT"> F  </i>
   <i name="HFSCREEN">      0.00000000</i>
   <i name="HFSCREENC">      0.00000000</i>
   <i type="int" name="NBANDSGWLOW">     0</i>
  </separator>
  <separator name="vdW DFT" >
   <i type="logical" name="LUSE_VDW"> F  </i>
   <i name="Zab_VDW">     -0.84910000</i>
   <i name="PARAM1">      0.12340000</i>
   <i name="PARAM2">      1.00000000</i>
   <i name="PARAM3">      0.00000000</i>
  </separator>
  <separator name="model GW" >
   <i type="int" name="MODEL_GW">     0</i>
   <i name="MODEL_EPS0">     24.53982053</i>
   <i name="MODEL_ALPHA">      1.00000000</i>
  </separator>
  <separator name="linear response parameters" >
   <i type="logical" name="LEPSILON"> F  </i>
   <i type="logical" name="LRPA"> F  </i>
   <i type="logical" name="LNABLA"> F  </i>
   <i type="logical" name="LVEL"> F  </i>
   <i type="int" name="KINTER">     0</i>
   <i name="CSHIFT">      0.10000000</i>
   <i name="OMEGAMAX">     -1.00000000</i>
   <i name="DEG_THRESHOLD">      0.00200000</i>
   <i name="RTIME">     -0.10000000</i>
   <i name="WPLASMAI">      0.00000000</i>
   <v name="DFIELD">      0.00000000      0.00000000      0.00000000</v>
   <v name="WPLASMA">      0.00000000      0.00000000      0.00000000      0.00000000      0.00000000      0.00000000      0.00000000      0.00000000      0.00000000</v>
  </separator>
  <separator name="orbital magnetization" >
   <i type="logical" name="NUCIND"> F  </i>
   <v name="MAGPOS">      0.00000000      0.00000000      0.00000000</v>
   <i type="logical" name="LNICSALL"> T  </i>
   <i type="logical" name="ORBITALMAG"> F  </i>
   <i type="logical" name="LMAGBLOCH"> F  </i>
   <i type="logical" name="LCHIMAG"> F  </i>
   <i type="logical" name="LGAUGE"> T  </i>
   <i type="int" name="MAGATOM">     0</i>
   <v name="MAGDIPOL">      0.00000000      0.00000000      0.00000000</v>
   <v name="AVECCONST">      0.00000000      0.00000000      0.00000000</v>
  </separator>
  <separator name="response functions" >
   <i type="logical" name="LADDER"> F  </i>
   <i type="logical" name="LRPAFORCE"> F  </i>
   <i type="logical" name="LFXC"> F  </i>
   <i type="logical" name="LHARTREE"> T  </i>
   <i type="int" name="IBSE">     0</i>
   <v type="int" name="KPOINT">    -1     0     0     0</v>
   <i type="logical" name="LTCTE"> F  </i>
   <i type="logical" name="LTETE"> F  </i>
   <i type="logical" name="LTRIPLET"> F  </i>
   <i type="logical" name="LFXCEPS"> F  </i>
   <i type="logical" name="LFXHEG"> F  </i>
   <i type="int" name="NATURALO">     2</i>
   <i type="logical" name="L2ORDER"> F  </i>
   <i type="logical" name="LMP2LT"> F  </i>
   <i type="logical" name="LUSEW"> F  </i>
   <i name="ENCUTGW">     -2.00000000</i>
   <i name="ENCUTGWSOFT">     -2.00000000</i>
   <i name="ENCUTLF">     -1.00000000</i>
   <i type="int" name="LMAXMP2">    -1</i>
   <i name="SCISSOR">      0.00000000</i>
   <i type="int" name="NOMEGA">     0</i>
   <i type="int" name="NOMEGAR">     0</i>
   <i type="int" name="NBANDSGW">    -1</i>
   <i type="int" name="NBANDSO">    -1</i>
   <i type="int" name="NBANDSV">    -1</i>
   <i type="int" name="NELM">   200</i>
   <i type="int" name="NELMHF">     1</i>
   <i type="int" name="DIM">     3</i>
   <i type="int" name="ANTIRES">     0</i>
   <i name="OMEGAMAX">    -30.00000000</i>
   <i name="OMEGAMIN">    -30.00000000</i>
   <i name="OMEGATL">   -200.00000000</i>
   <i type="int" name="OMEGAGRID">   140</i>
   <i name="CSHIFT">     -0.10000000</i>
   <i type="logical" name="SELFENERGY"> F  </i>
   <i type="logical" name="LSPECTRAL"> F  </i>
   <i type="logical" name="LSPECTRALGW"> F  </i>
   <i type="logical" name="LSINGLES"> F  </i>
   <i type="logical" name="LFERMIGW"> F  </i>
   <i type="logical" name="ODDONLYGW"> F  </i>
   <i type="logical" name="EVENONLYGW"> F  </i>
   <i type="int" name="NKREDLFX">     1</i>
   <i type="int" name="NKREDLFY">     1</i>
   <i type="int" name="NKREDLFZ">     1</i>
   <i type="int" name="MAXMEM">  2800</i>
   <i type="int" name="TELESCOPE">     0</i>
   <i type="int" name="TAUPAR">     1</i>
   <i type="int" name="OMEGAPAR">    -1</i>
   <i name="LAMBDA">      1.00000000</i>
  </separator>
  <separator name="External order field" >
   <i name="OFIELD_KAPPA">      0.00000000</i>
   <v name="OFIELD_K">      0.00000000      0.00000000      0.00000000</v>
   <i name="OFIELD_Q6_NEAR">      0.00000000</i>
   <i name="OFIELD_Q6_FAR">      0.00000000</i>
   <i name="OFIELD_A">      0.00000000</i>
  </separator>
 </parameters>
 <atominfo>
  <atoms>      39 </atoms>
  <types>       3 </types>
  <array name="atoms" >
   <dimension dim="1">ion</dimension>
   <field type="string">element</field>
   <field type="int">atomtype</field>
   <set>
    <rc><c>Cs</c><c>   1</c></rc>
    <rc><c>Cs</c><c>   1</c></rc>
    <rc><c>Cs</c><c>   1</c></rc>
    <rc><c>Cs</c><c>   1</c></rc>
    <rc><c>Cs</c><c>   1</c></rc>
    <rc><c>Cs</c><c>   1</c></rc>
    <rc><c>Cs</c><c>   1</c></rc>
    <rc><c>Cs</c><c>   1</c></rc>
    <rc><c>Pb</c><c>   2</c></rc>
    <rc><c>Pb</c><c>   2</c></rc>
    <rc><c>Pb</c><c>   2</c></rc>
    <rc><c>Pb</c><c>   2</c></rc>
    <rc><c>Pb</c><c>   2</c></rc>
    <rc><c>Pb</c><c>   2</c></rc>
    <rc><c>Pb</c><c>   2</c></rc>
    <rc><c>Pb</c><c>   2</c></rc>
    <rc><c>Br</c><c>   3</c></rc>
    <rc><c>Br</c><c>   3</c></rc>
    <rc><c>Br</c><c>   3</c></rc>
    <rc><c>Br</c><c>   3</c></rc>
    <rc><c>Br</c><c>   3</c></rc>
    <rc><c>Br</c><c>   3</c></rc>
    <rc><c>Br</c><c>   3</c></rc>
    <rc><c>Br</c><c>   3</c></rc>
    <rc><c>Br</c><c>   3</c></rc>
    <rc><c>Br</c><c>   3</c></rc>
    <rc><c>Br</c><c>   3</c></rc>
    <rc><c>Br</c><c>   3</c></rc>
    <rc><c>Br</c><c>   3</c></rc>
    <rc><c>Br</c><c>   3</c></rc>
    <rc><c>Br</c><c>   3</c></rc>
    <rc><c>Br</c><c>   3</c></rc>
    <rc><c>Br</c><c>   3</c></rc>
    <rc><c>Br</c><c>   3</c></rc>
    <rc><c>Br</c><c>   3</c></rc>
    <rc><c>Br</c><c>   3</c></rc>
    <rc><c>Br</c><c>   3</c></rc>
    <rc><c>Br</c><c>   3</c></rc>
    <rc><c>Br</c><c>   3</c></rc>
   </set>
  </array>
  <array name="atomtypes" >
   <dimension dim="1">type</dimension>
   <field type="int">atomspertype</field>
   <field type="string">element</field>
   <field>mass</field>
   <field>valence</field>
   <field type="string">pseudopotential</field>
   <set>
    <rc><c>   8</c><c>Cs</c><c>    132.90000000</c><c>      9.00000000</c><c>  PAW_PBE Cs_sv 08Apr2002               </c></rc>
    <rc><c>   8</c><c>Pb</c><c>    207.20000000</c><c>     14.00000000</c><c>  PAW_PBE Pb_d 06Sep2000                </c></rc>
    <rc><c>  23</c><c>Br</c><c>     79.90400000</c><c>      7.00000000</c><c>  PAW_PBE Br 06Sep2000                  </c></rc>
   </set>
  </array>
 </atominfo>
 <structure name="initialpos" >
  <crystal>
   <varray name="basis" >
    <v>       8.45648900       0.00000000       8.04030100 </v>
    <v>       0.00000000      11.72984700       0.00000000 </v>
    <v>      -8.45648900       0.00000000       8.04030100 </v>
   </varray>
   <i name="volume">   1595.08833419 </i>
   <varray name="rec_basis" >
    <v>       0.05912619      -0.00000000       0.06218673 </v>
    <v>       0.00000000       0.08525260      -0.00000000 </v>
    <v>      -0.05912619       0.00000000       0.06218673 </v>
   </varray>
  </crystal>
  <varray name="positions" >
   <v>       0.26614500       0.24676200       0.19840100 </v>
   <v>       0.77689600       0.24488100       0.71499700 </v>
   <v>       0.71960300       0.75268600       0.26385800 </v>
   <v>       0.20082700       0.75479600       0.77772600 </v>
   <v>       0.29095700       0.23798900       0.74540800 </v>
   <v>       0.79306700       0.24844100       0.22484800 </v>
   <v>       0.73456400       0.74936300       0.80738700 </v>
   <v>       0.22507200       0.75391600       0.26337700 </v>
   <v>       0.99632600       0.00093500       0.99958900 </v>
   <v>       0.49486600       0.00359300       0.50025700 </v>
   <v>       0.49994400       0.99683900       0.00043800 </v>
   <v>       0.00044400       0.00374900       0.49997200 </v>
   <v>       0.50040000       0.49806700       0.00029000 </v>
   <v>       0.00365700       0.50377700       0.50040500 </v>
   <v>       0.99997200       0.49878000       0.99995000 </v>
   <v>       0.51165600       0.48782300       0.49802500 </v>
   <v>       0.46906700       0.74761900       0.96343100 </v>
   <v>       0.97950100       0.75306800       0.45859000 </v>
   <v>       0.97083600       0.25006100       0.96916300 </v>
   <v>       0.44462000       0.24432000       0.47221800 </v>
   <v>       0.01369600       0.74969300       0.02611100 </v>
   <v>       0.52571700       0.24765600       0.03409500 </v>
   <v>       0.03521100       0.25608600       0.54129300 </v>
   <v>       0.24729200       0.47140500       0.94687800 </v>
   <v>       0.76195000       0.47459600       0.44684000 </v>
   <v>       0.45524000       0.53334900       0.24887400 </v>
   <v>       0.94972800       0.53519100       0.74626500 </v>
   <v>       0.55202900       0.02792000       0.75132000 </v>
   <v>       0.04705100       0.03584300       0.25248800 </v>
   <v>       0.74965700       0.97092300       0.05193700 </v>
   <v>       0.24995500       0.96999200       0.55624000 </v>
   <v>       0.24550200       0.02175000       0.95766200 </v>
   <v>       0.74234900       0.03691600       0.45272400 </v>
   <v>       0.45591800       0.95973900       0.25048900 </v>
   <v>       0.94780900       0.96592500       0.74725700 </v>
   <v>       0.75210700       0.52738800       0.05249900 </v>
   <v>       0.55170700       0.46156500       0.74828100 </v>
   <v>       0.05585300       0.46820300       0.25399000 </v>
   <v>       0.37550000       0.65673700       0.53634500 </v>
  </varray>
 </structure>
 <calculation>
  <scstep>
   <time name="dav">   16.63   16.63</time>
   <time name="total">   18.10   18.11</time>
   <energy>
    <i name="alphaZ">    872.70583573 </i>
    <i name="ewald"> -17925.35718937 </i>
    <i name="hartreedc">  -7431.20058998 </i>
    <i name="XCdc">    908.16028013 </i>
    <i name="pawpsdc">  21345.28103884 </i>
    <i name="pawaedc"> -22405.85761495 </i>
    <i name="eentropy">     -0.00140555 </i>
    <i name="bandstr">   -245.87223189 </i>
    <i name="atom">  26212.11861568 </i>
    <i name="e_fr_energy">   1329.97673865 </i>
    <i name="e_wo_entrp">   1329.97814420 </i>
    <i name="e_0_energy">   1329.97744142 </i>
   </energy>
  </scstep>
  <scstep>
   <time name="dav">   18.47   18.53</time>
   <time name="total">   18.47   18.53</time>
   <energy>
    <i name="e_fr_energy">  -1114.89774524 </i>
    <i name="e_wo_entrp">  -1114.89774524 </i>
    <i name="e_0_energy">  -1114.89774524 </i>
   </energy>
  </scstep>
  <scstep>
   <time name="dav">   19.48   19.53</time>
   <time name="total">   19.48   19.53</time>
   <energy>
    <i name="e_fr_energy">  -1474.70359330 </i>
    <i name="e_wo_entrp">  -1474.70359330 </i>
    <i name="e_0_energy">  -1474.70359330 </i>
   </energy>
  </scstep>
  <scstep>
   <time name="dav">   17.93   17.95</time>
   <time name="total">   17.93   17.95</time>
   <energy>
    <i name="e_fr_energy">  -1486.66218865 </i>
    <i name="e_wo_entrp">  -1486.66218865 </i>
    <i name="e_0_energy">  -1486.66218865 </i>
   </energy>
  </scstep>
  <scstep>
   <time name="dav">   19.51   19.55</time>
   <time name="total">   22.21   22.25</time>
   <energy>
    <i name="e_fr_energy">  -1487.23313799 </i>
    <i name="e_wo_entrp">  -1487.23313799 </i>
    <i name="e_0_energy">  -1487.23313799 </i>
   </energy>
  </scstep>
  <scstep>
   <time name="dav">   19.10   19.10</time>
   <time name="total">   23.24   23.31</time>
   <energy>
    <i name="e_fr_energy">  -1409.58829286 </i>
    <i name="e_wo_entrp">  -1409.58829286 </i>
    <i name="e_0_energy">  -1409.58829286 </i>
   </energy>
  </scstep>
  <scstep>
   <time name="dav">   18.45   18.45</time>
   <time name="total">   22.62   22.66</time>
   <energy>
    <i name="e_fr_energy">  -1409.07352350 </i>
    <i name="e_wo_entrp">  -1409.07352350 </i>
    <i name="e_0_energy">  -1409.07352350 </i>
   </energy>
  </scstep>
  <scstep>
   <time name="dav">   18.18   18.18</time>
   <time name="total">   22.34   22.39</time>
   <energy>
    <i name="e_fr_energy">  -1409.24643381 </i>
    <i name="e_wo_entrp">  -1409.24643381 </i>
    <i name="e_0_energy">  -1409.24643381 </i>
   </energy>
  </scstep>
  <scstep>
   <time name="dav">   17.67   17.67</time>
   <time name="total">   21.83   21.88</time>
   <energy>
    <i name="e_fr_energy">  -1409.31166525 </i>
    <i name="e_wo_entrp">  -1409.31166525 </i>
    <i name="e_0_energy">  -1409.31166525 </i>
   </energy>
  </scstep>
  <scstep>
   <time name="dav">   19.90   19.90</time>
   <time name="total">   24.09   24.10</time>
   <energy>
    <i name="e_fr_energy">  -1409.31511222 </i>
    <i name="e_wo_entrp">  -1409.31511222 </i>
    <i name="e_0_energy">  -1409.31511222 </i>
   </energy>
  </scstep>
  <scstep>
   <time name="dav">   17.53   17.54</time>
   <time name="total">   21.73   21.76</time>
   <energy>
    <i name="e_fr_energy">  -1409.31707405 </i>
    <i name="e_wo_entrp">  -1409.31707405 </i>
    <i name="e_0_energy">  -1409.31707405 </i>
   </energy>
  </scstep>
  <scstep>
   <time name="dav">   17.09   17.09</time>
   <time name="total">   21.25   21.31</time>
   <energy>
    <i name="e_fr_energy">  -1409.31975774 </i>
    <i name="e_wo_entrp">  -1409.31975774 </i>
    <i name="e_0_energy">  -1409.31975774 </i>
   </energy>
  </scstep>
  <scstep>
   <time name="dav">   19.40   19.40</time>
   <time name="total">   23.58   23.62</time>
   <energy>
    <i name="e_fr_energy">  -1409.31942529 </i>
    <i name="e_wo_entrp">  -1409.31942529 </i>
    <i name="e_0_energy">  -1409.31942529 </i>
   </energy>
  </scstep>
  <scstep>
   <time name="dav">   17.88   17.88</time>
   <time name="total">   22.04   22.10</time>
   <energy>
    <i name="e_fr_energy">  -1409.31935295 </i>
    <i name="e_wo_entrp">  -1409.31935295 </i>
    <i name="e_0_energy">  -1409.31935295 </i>
   </energy>
  </scstep>
  <scstep>
   <time name="dav">   17.61   17.62</time>
   <time name="total">   21.80   21.81</time>
   <energy>
    <i name="e_fr_energy">  -1409.31934781 </i>
    <i name="e_wo_entrp">  -1409.31934781 </i>
    <i name="e_0_energy">  -1409.31934781 </i>
   </energy>
  </scstep>
  <scstep>
   <time name="dav">   17.56   17.56</time>
   <time name="total">   21.73   21.77</time>
   <energy>
    <i name="e_fr_energy">  -1409.31939224 </i>
    <i name="e_wo_entrp">  -1409.31939224 </i>
    <i name="e_0_energy">  -1409.31939224 </i>
   </energy>
  </scstep>
  <scstep>
   <time name="dav">   18.04   18.04</time>
   <time name="total">   22.23   22.24</time>
   <energy>
    <i name="e_fr_energy">  -1409.31940398 </i>
    <i name="e_wo_entrp">  -1409.31940398 </i>
    <i name="e_0_energy">  -1409.31940398 </i>
   </energy>
  </scstep>
  <scstep>
   <time name="dav">   13.94   13.94</time>
   <time name="total">   18.15   18.16</time>
   <energy>
    <i name="e_fr_energy">  -1409.31939507 </i>
    <i name="e_wo_entrp">  -1409.31939507 </i>
    <i name="e_0_energy">  -1409.31939507 </i>
   </energy>
  </scstep>
  <scstep>
   <time name="dav">   13.61   13.61</time>
   <time name="total">   17.78   17.83</time>
   <energy>
    <i name="e_fr_energy">  -1409.31939125 </i>
    <i name="e_wo_entrp">  -1409.31939125 </i>
    <i name="e_0_energy">  -1409.31939125 </i>
   </energy>
  </scstep>
  <scstep>
   <time name="dav">   13.03   13.03</time>
   <time name="total">   17.18   17.26</time>
   <energy>
    <i name="e_fr_energy">  -1409.31938925 </i>
    <i name="e_wo_entrp">  -1409.31938925 </i>
    <i name="e_0_energy">  -1409.31938925 </i>
   </energy>
  </scstep>
  <scstep>
   <time name="dav">   12.37   12.37</time>
   <time name="total">   16.55   16.59</time>
   <energy>
    <i name="e_fr_energy">  -1409.31938741 </i>
    <i name="e_wo_entrp">  -1409.31938741 </i>
    <i name="e_0_energy">  -1409.31938741 </i>
   </energy>
  </scstep>
  <scstep>
   <time name="dav">   12.32   12.32</time>
   <time name="total">   13.81   13.84</time>
   <energy>
    <i name="alphaZ">    872.70583573 </i>
    <i name="ewald"> -17925.35718937 </i>
    <i name="hartreedc">  -7465.45588806 </i>
    <i name="XCdc">    943.77625981 </i>
    <i name="pawpsdc">  22783.48310785 </i>
    <i name="pawaedc"> -23842.19298937 </i>
    <i name="eentropy">     -0.00000000 </i>
    <i name="bandstr">  -2988.39713996 </i>
    <i name="atom">  26212.11861568 </i>
    <i name="e_fr_energy">  -1409.31938770 </i>
    <i name="e_wo_entrp">  -1409.31938770 </i>
    <i name="e_0_energy">  -1409.31938770 </i>
   </energy>
  </scstep>
  <structure>
   <crystal>
    <varray name="basis" >
     <v>       8.45648900       0.00000000       8.04030100 </v>
     <v>       0.00000000      11.72984700       0.00000000 </v>
     <v>      -8.45648900       0.00000000       8.04030100 </v>
    </varray>
    <i name="volume">   1595.08833419 </i>
    <varray name="rec_basis" >
     <v>       0.05912619      -0.00000000       0.06218673 </v>
     <v>       0.00000000       0.08525260      -0.00000000 </v>
     <v>      -0.05912619       0.00000000       0.06218673 </v>
    </varray>
   </crystal>
   <varray name="positions" >
    <v>       0.26614500       0.24676200       0.19840100 </v>
    <v>       0.77689600       0.24488100       0.71499700 </v>
    <v>       0.71960300       0.75268600       0.26385800 </v>
    <v>       0.20082700       0.75479600       0.77772600 </v>
    <v>       0.29095700       0.23798900       0.74540800 </v>
    <v>       0.79306700       0.24844100       0.22484800 </v>
    <v>       0.73456400       0.74936300       0.80738700 </v>
    <v>       0.22507200       0.75391600       0.26337700 </v>
    <v>       0.99632600       0.00093500       0.99958900 </v>
    <v>       0.49486600       0.00359300       0.50025700 </v>
    <v>       0.49994400       0.99683900       0.00043800 </v>
    <v>       0.00044400       0.00374900       0.49997200 </v>
    <v>       0.50040000       0.49806700       0.00029000 </v>
    <v>       0.00365700       0.50377700       0.50040500 </v>
    <v>       0.99997200       0.49878000       0.99995000 </v>
    <v>       0.51165600       0.48782300       0.49802500 </v>
    <v>       0.46906700       0.74761900       0.96343100 </v>
    <v>       0.97950100       0.75306800       0.45859000 </v>
    <v>       0.97083600       0.25006100       0.96916300 </v>
    <v>       0.44462000       0.24432000       0.47221800 </v>
    <v>       0.01369600       0.74969300       0.02611100 </v>
    <v>       0.52571700       0.24765600       0.03409500 </v>
    <v>       0.03521100       0.25608600       0.54129300 </v>
    <v>       0.24729200       0.47140500       0.94687800 </v>
    <v>       0.76195000       0.47459600       0.44684000 </v>
    <v>       0.45524000       0.53334900       0.24887400 </v>
    <v>       0.94972800       0.53519100       0.74626500 </v>
    <v>       0.55202900       0.02792000       0.75132000 </v>
    <v>       0.04705100       0.03584300       0.25248800 </v>
    <v>       0.74965700       0.97092300       0.05193700 </v>
    <v>       0.24995500       0.96999200       0.55624000 </v>
    <v>       0.24550200       0.02175000       0.95766200 </v>
    <v>       0.74234900       0.03691600       0.45272400 </v>
    <v>       0.45591800       0.95973900       0.25048900 </v>
    <v>       0.94780900       0.96592500       0.74725700 </v>
    <v>       0.75210700       0.52738800       0.05249900 </v>
    <v>       0.55170700       0.46156500       0.74828100 </v>
    <v>       0.05585300       0.46820300       0.25399000 </v>
    <v>       0.37550000       0.65673700       0.53634500 </v>
   </varray>
  </structure>
  <varray name="forces" >
   <v>       0.00277055       0.00765205       0.01214558 </v>
   <v>      -0.00199522       0.01239429      -0.01383394 </v>
   <v>       0.01123378      -0.02192078      -0.00366698 </v>
   <v>       0.00684872      -0.00117106       0.00097250 </v>
   <v>       0.01838174      -0.03154348       0.01297214 </v>
   <v>      -0.00630027       0.01747112      -0.00690122 </v>
   <v>      -0.01344477      -0.01138795       0.00808642 </v>
   <v>       0.00359678       0.01066264       0.00869005 </v>
   <v>       0.00199314       0.00592207       0.00040429 </v>
   <v>      -0.06443412       0.14860557      -0.10166092 </v>
   <v>      -0.00529661       0.02117302       0.00613989 </v>
   <v>       0.01267563       0.01919091       0.01648081 </v>
   <v>      -0.00994328       0.00378816       0.00674984 </v>
   <v>      -0.07355697      -0.03609153      -0.17357562 </v>
   <v>      -0.00584567      -0.00999384       0.00162339 </v>
   <v>       0.68089805      -0.94121323       0.39220843 </v>
   <v>       0.00507926       0.01638960      -0.00141734 </v>
   <v>      -0.00254541       0.00117694       0.00271425 </v>
   <v>       0.00083642      -0.00117059       0.00164853 </v>
   <v>      -0.05074631      -0.40220911      -0.02693232 </v>
   <v>      -0.00094472       0.00058807      -0.00709566 </v>
   <v>      -0.00185455      -0.02120833       0.00034193 </v>
   <v>       0.00171113      -0.00302081       0.00362051 </v>
   <v>      -0.01198324      -0.00003140      -0.01334482 </v>
   <v>       0.32277261       0.07290186       0.33742149 </v>
   <v>       0.10469899      -0.00312225      -0.10183513 </v>
   <v>       0.00775792       0.00815083      -0.00353639 </v>
   <v>       0.00566158      -0.00468532      -0.00846099 </v>
   <v>      -0.00614335      -0.00562260       0.00729796 </v>
   <v>       0.00962957       0.00060968      -0.00053622 </v>
   <v>      -0.01257003       0.01870872      -0.01021160 </v>
   <v>      -0.00174221      -0.00210936       0.00375612 </v>
   <v>      -0.00865861      -0.00605998      -0.00384953 </v>
   <v>      -0.01031223      -0.00674202       0.00904926 </v>
   <v>       0.00013726      -0.00703571      -0.00538718 </v>
   <v>       0.01337754       0.00807747       0.01041680 </v>
   <v>      -0.04542512      -0.03380619       0.09334795 </v>
   <v>      -0.01397720       0.00328959       0.01392580 </v>
   <v>      -0.86234080       1.17339294      -0.46776809 </v>
  </varray>
  <varray name="stress" >
   <v>      -5.45188191      -1.48116018       0.36825469 </v>
   <v>      -1.48101228      -2.85872516      -1.15303532 </v>
   <v>       0.36824935      -1.15303031      -5.78373422 </v>
  </varray>
  <energy>
   <i name="e_fr_energy">  -1409.31938770 </i>
   <i name="e_wo_entrp">  -1409.31938770 </i>
   <i name="e_0_energy">     -0.00000000 </i>
  </energy>
  <time name="totalsc">  503.25  504.16</time>
  <eigenvalues>
   <array>
    <dimension dim="1">band</dimension>
    <dimension dim="2">kpoint</dimension>
    <dimension dim="3">spin</dimension>
    <field>eigene</field>
    <field>occ</field>
    <set>
     <set comment="spin 1">
      <set comment="kpoint 1">
       <r>  -20.9204    1.0000 </r>
       <r>  -20.8764    1.0000 </r>
       <r>  -20.8275    1.0000 </r>
       <r>  -20.7403    1.0000 </r>
       <r>  -20.7366    1.0000 </r>
       <r>  -20.7205    1.0000 </r>
       <r>  -20.7163    1.0000 </r>
       <r>  -20.6681    1.0000 </r>
       <r>  -16.7105    1.0000 </r>
       <r>  -16.6841    1.0000 </r>
       <r>  -16.6726    1.0000 </r>
       <r>  -16.6582    1.0000 </r>
       <r>  -16.6071    1.0000 </r>
       <r>  -16.5985    1.0000 </r>
       <r>  -16.5865    1.0000 </r>
       <r>  -16.5745    1.0000 </r>
       <r>  -16.5730    1.0000 </r>
       <r>  -16.5534    1.0000 </r>
       <r>  -16.5389    1.0000 </r>
       <r>  -16.5031    1.0000 </r>
       <r>  -16.4568    1.0000 </r>
       <r>  -16.4515    1.0000 </r>
       <r>  -16.4399    1.0000 </r>
       <r>  -16.4233    1.0000 </r>
       <r>  -16.4188    1.0000 </r>
       <r>  -16.4176    1.0000 </r>
       <r>  -16.4175    1.0000 </r>
       <r>  -16.4071    1.0000 </r>
       <r>  -16.3687    1.0000 </r>
       <r>  -16.3579    1.0000 </r>
       <r>  -16.3371    1.0000 </r>
       <r>  -16.3352    1.0000 </r>
       <r>  -16.3210    1.0000 </r>
       <r>  -16.3154    1.0000 </r>
       <r>  -16.3095    1.0000 </r>
       <r>  -16.3044    1.0000 </r>
       <r>  -16.3013    1.0000 </r>
       <r>  -16.2978    1.0000 </r>
       <r>  -16.2923    1.0000 </r>
       <r>  -16.2891    1.0000 </r>
       <r>  -16.2837    1.0000 </r>
       <r>  -16.2750    1.0000 </r>
       <r>  -16.2709    1.0000 </r>
       <r>  -16.2688    1.0000 </r>
       <r>  -16.2589    1.0000 </r>
       <r>  -16.2462    1.0000 </r>
       <r>  -16.2407    1.0000 </r>
       <r>  -16.2344    1.0000 </r>
       <r>  -14.4936    1.0000 </r>
       <r>  -14.3746    1.0000 </r>
       <r>  -14.3021    1.0000 </r>
       <r>  -14.2661    1.0000 </r>
       <r>  -14.1333    1.0000 </r>
       <r>  -14.1256    1.0000 </r>
       <r>  -14.1106    1.0000 </r>
       <r>  -14.0762    1.0000 </r>
       <r>  -14.0615    1.0000 </r>
       <r>  -14.0542    1.0000 </r>
       <r>  -14.0400    1.0000 </r>
       <r>  -14.0303    1.0000 </r>
       <r>  -14.0087    1.0000 </r>
       <r>  -14.0011    1.0000 </r>
       <r>  -13.9939    1.0000 </r>
       <r>  -13.9842    1.0000 </r>
       <r>  -13.9435    1.0000 </r>
       <r>  -13.9264    1.0000 </r>
       <r>  -13.8910    1.0000 </r>
       <r>  -13.7699    1.0000 </r>
       <r>  -13.7495    1.0000 </r>
       <r>  -13.7313    1.0000 </r>
       <r>  -13.7144    1.0000 </r>
       <r>   -8.1970    1.0000 </r>
       <r>   -7.7834    1.0000 </r>
       <r>   -7.7401    1.0000 </r>
       <r>   -7.7119    1.0000 </r>
       <r>   -7.3587    1.0000 </r>
       <r>   -7.3404    1.0000 </r>
       <r>   -7.3163    1.0000 </r>
       <r>   -7.2940    1.0000 </r>
       <r>   -7.2737    1.0000 </r>
       <r>   -7.2648    1.0000 </r>
       <r>   -7.2519    1.0000 </r>
       <r>   -7.2402    1.0000 </r>
       <r>   -7.2293    1.0000 </r>
       <r>   -7.2255    1.0000 </r>
       <r>   -7.2088    1.0000 </r>
       <r>   -7.1643    1.0000 </r>
       <r>   -7.1636    1.0000 </r>
       <r>   -7.1533    1.0000 </r>
       <r>   -7.1458    1.0000 </r>
       <r>   -7.1408    1.0000 </r>
       <r>   -7.1382    1.0000 </r>
       <r>   -7.1321    1.0000 </r>
       <r>   -7.1219    1.0000 </r>
       <r>   -7.1175    1.0000 </r>
       <r>   -7.1094    1.0000 </r>
       <r>   -7.1041    1.0000 </r>
       <r>   -7.0999    1.0000 </r>
       <r>   -7.0923    1.0000 </r>
       <r>   -7.0808    1.0000 </r>
       <r>   -7.0643    1.0000 </r>
       <r>   -7.0199    1.0000 </r>
       <r>   -6.5828    1.0000 </r>
       <r>   -3.3888    1.0000 </r>
       <r>   -3.3009    1.0000 </r>
       <r>   -3.2786    1.0000 </r>
       <r>   -3.2628    1.0000 </r>
       <r>   -3.2276    1.0000 </r>
       <r>   -3.2033    1.0000 </r>
       <r>   -3.1698    1.0000 </r>
       <r>   -3.1603    1.0000 </r>
       <r>   -3.1231    1.0000 </r>
       <r>   -3.0620    1.0000 </r>
       <r>   -3.0368    1.0000 </r>
       <r>   -2.8849    1.0000 </r>
       <r>   -2.2156    1.0000 </r>
       <r>   -2.1840    1.0000 </r>
       <r>   -2.1472    1.0000 </r>
       <r>   -2.0867    1.0000 </r>
       <r>   -2.0404    1.0000 </r>
       <r>   -1.9907    1.0000 </r>
       <r>   -1.9095    1.0000 </r>
       <r>   -1.8963    1.0000 </r>
       <r>   -1.8655    1.0000 </r>
       <r>   -1.8301    1.0000 </r>
       <r>   -1.8095    1.0000 </r>
       <r>   -1.7630    1.0000 </r>
       <r>   -1.6817    1.0000 </r>
       <r>   -1.6721    1.0000 </r>
       <r>   -1.6481    1.0000 </r>
       <r>   -1.5970    1.0000 </r>
       <r>   -1.5919    1.0000 </r>
       <r>   -1.5678    1.0000 </r>
       <r>   -1.5394    1.0000 </r>
       <r>   -1.5254    1.0000 </r>
       <r>   -1.5117    1.0000 </r>
       <r>   -1.4802    1.0000 </r>
       <r>   -1.4757    1.0000 </r>
       <r>   -1.4636    1.0000 </r>
       <r>   -1.4593    1.0000 </r>
       <r>   -1.4294    1.0000 </r>
       <r>   -1.4202    1.0000 </r>
       <r>   -1.4049    1.0000 </r>
       <r>   -1.3990    1.0000 </r>
       <r>   -1.3748    1.0000 </r>
       <r>   -1.3677    1.0000 </r>
       <r>   -1.3496    1.0000 </r>
       <r>   -1.3401    1.0000 </r>
       <r>   -1.3264    1.0000 </r>
       <r>   -1.3195    1.0000 </r>
       <r>   -1.3107    1.0000 </r>
       <r>   -1.2996    1.0000 </r>
       <r>   -1.2855    1.0000 </r>
       <r>   -1.2720    1.0000 </r>
       <r>   -1.2482    1.0000 </r>
       <r>   -1.1880    1.0000 </r>
       <r>   -1.1801    1.0000 </r>
       <r>   -1.1528    1.0000 </r>
       <r>   -1.1263    1.0000 </r>
       <r>   -1.1088    1.0000 </r>
       <r>   -1.0918    1.0000 </r>
       <r>   -1.0270    1.0000 </r>
       <r>   -1.0002    1.0000 </r>
       <r>   -0.9496    1.0000 </r>
       <r>   -0.8601    1.0000 </r>
       <r>   -0.7843    1.0000 </r>
       <r>   -0.7612    1.0000 </r>
       <r>   -0.6279    1.0000 </r>
       <r>   -0.3165    1.0000 </r>
       <r>   -0.2314    1.0000 </r>
       <r>   -0.1010    1.0000 </r>
       <r>    0.3876    1.0000 </r>
       <r>    2.6241    0.0000 </r>
       <r>    2.7761    0.0000 </r>
       <r>    2.8095    0.0000 </r>
       <r>    2.9336    0.0000 </r>
       <r>    3.0627    0.0000 </r>
       <r>    3.1131    0.0000 </r>
       <r>    3.1475    0.0000 </r>
       <r>    3.2235    0.0000 </r>
       <r>    3.2786    0.0000 </r>
       <r>    3.4751    0.0000 </r>
       <r>    3.5095    0.0000 </r>
       <r>    3.5487    0.0000 </r>
       <r>    4.1693    0.0000 </r>
       <r>    4.8251    0.0000 </r>
       <r>    5.2172    0.0000 </r>
       <r>    5.4787    0.0000 </r>
       <r>    5.6654    0.0000 </r>
       <r>    5.7373    0.0000 </r>
       <r>    5.8368    0.0000 </r>
       <r>    5.8618    0.0000 </r>
       <r>    5.9094    0.0000 </r>
       <r>    5.9128    0.0000 </r>
       <r>    6.0145    0.0000 </r>
       <r>    6.0573    0.0000 </r>
       <r>    6.1312    0.0000 </r>
       <r>    6.1788    0.0000 </r>
       <r>    6.1938    0.0000 </r>
       <r>    6.2310    0.0000 </r>
       <r>    6.3192    0.0000 </r>
       <r>    6.3771    0.0000 </r>
       <r>    6.3827    0.0000 </r>
       <r>    6.4346    0.0000 </r>
       <r>    6.5122    0.0000 </r>
       <r>    6.5477    0.0000 </r>
       <r>    6.5990    0.0000 </r>
       <r>    6.6814    0.0000 </r>
      </set>
      <set comment="kpoint 2">
       <r>  -20.9204    1.0000 </r>
       <r>  -20.8764    1.0000 </r>
       <r>  -20.8275    1.0000 </r>
       <r>  -20.7403    1.0000 </r>
       <r>  -20.7366    1.0000 </r>
       <r>  -20.7205    1.0000 </r>
       <r>  -20.7163    1.0000 </r>
       <r>  -20.6681    1.0000 </r>
       <r>  -16.7101    1.0000 </r>
       <r>  -16.6839    1.0000 </r>
       <r>  -16.6705    1.0000 </r>
       <r>  -16.6583    1.0000 </r>
       <r>  -16.6071    1.0000 </r>
       <r>  -16.5985    1.0000 </r>
       <r>  -16.5866    1.0000 </r>
       <r>  -16.5745    1.0000 </r>
       <r>  -16.5730    1.0000 </r>
       <r>  -16.5534    1.0000 </r>
       <r>  -16.5389    1.0000 </r>
       <r>  -16.5031    1.0000 </r>
       <r>  -16.4536    1.0000 </r>
       <r>  -16.4515    1.0000 </r>
       <r>  -16.4342    1.0000 </r>
       <r>  -16.4232    1.0000 </r>
       <r>  -16.4181    1.0000 </r>
       <r>  -16.4175    1.0000 </r>
       <r>  -16.4055    1.0000 </r>
       <r>  -16.4022    1.0000 </r>
       <r>  -16.3796    1.0000 </r>
       <r>  -16.3629    1.0000 </r>
       <r>  -16.3504    1.0000 </r>
       <r>  -16.3375    1.0000 </r>
       <r>  -16.3210    1.0000 </r>
       <r>  -16.3154    1.0000 </r>
       <r>  -16.3096    1.0000 </r>
       <r>  -16.3045    1.0000 </r>
       <r>  -16.3013    1.0000 </r>
       <r>  -16.2978    1.0000 </r>
       <r>  -16.2924    1.0000 </r>
       <r>  -16.2891    1.0000 </r>
       <r>  -16.2838    1.0000 </r>
       <r>  -16.2750    1.0000 </r>
       <r>  -16.2709    1.0000 </r>
       <r>  -16.2688    1.0000 </r>
       <r>  -16.2589    1.0000 </r>
       <r>  -16.2462    1.0000 </r>
       <r>  -16.2407    1.0000 </r>
       <r>  -16.2344    1.0000 </r>
       <r>  -14.4831    1.0000 </r>
       <r>  -14.3930    1.0000 </r>
       <r>  -14.2834    1.0000 </r>
       <r>  -14.2602    1.0000 </r>
       <r>  -14.2125    1.0000 </r>
       <r>  -14.1248    1.0000 </r>
       <r>  -14.1070    1.0000 </r>
       <r>  -14.0764    1.0000 </r>
       <r>  -14.0608    1.0000 </r>
       <r>  -14.0587    1.0000 </r>
       <r>  -14.0518    1.0000 </r>
       <r>  -14.0379    1.0000 </r>
       <r>  -14.0083    1.0000 </r>
       <r>  -13.9926    1.0000 </r>
       <r>  -13.9759    1.0000 </r>
       <r>  -13.9440    1.0000 </r>
       <r>  -13.9106    1.0000 </r>
       <r>  -13.8582    1.0000 </r>
       <r>  -13.8518    1.0000 </r>
       <r>  -13.8206    1.0000 </r>
       <r>  -13.7915    1.0000 </r>
       <r>  -13.7552    1.0000 </r>
       <r>  -13.7199    1.0000 </r>
       <r>   -8.0429    1.0000 </r>
       <r>   -7.9607    1.0000 </r>
       <r>   -7.6371    1.0000 </r>
       <r>   -7.5145    1.0000 </r>
       <r>   -7.4813    1.0000 </r>
       <r>   -7.4387    1.0000 </r>
       <r>   -7.3547    1.0000 </r>
       <r>   -7.3163    1.0000 </r>
       <r>   -7.2896    1.0000 </r>
       <r>   -7.2837    1.0000 </r>
       <r>   -7.2611    1.0000 </r>
       <r>   -7.2499    1.0000 </r>
       <r>   -7.2391    1.0000 </r>
       <r>   -7.2267    1.0000 </r>
       <r>   -7.2057    1.0000 </r>
       <r>   -7.1678    1.0000 </r>
       <r>   -7.1616    1.0000 </r>
       <r>   -7.1516    1.0000 </r>
       <r>   -7.1438    1.0000 </r>
       <r>   -7.1399    1.0000 </r>
       <r>   -7.1336    1.0000 </r>
       <r>   -7.1277    1.0000 </r>
       <r>   -7.1136    1.0000 </r>
       <r>   -7.1110    1.0000 </r>
       <r>   -7.1094    1.0000 </r>
       <r>   -7.1045    1.0000 </r>
       <r>   -7.0946    1.0000 </r>
       <r>   -7.0861    1.0000 </r>
       <r>   -7.0704    1.0000 </r>
       <r>   -7.0565    1.0000 </r>
       <r>   -6.9265    1.0000 </r>
       <r>   -6.8474    1.0000 </r>
       <r>   -3.3576    1.0000 </r>
       <r>   -3.2619    1.0000 </r>
       <r>   -3.2436    1.0000 </r>
       <r>   -3.2386    1.0000 </r>
       <r>   -3.2236    1.0000 </r>
       <r>   -3.1554    1.0000 </r>
       <r>   -3.0977    1.0000 </r>
       <r>   -3.0882    1.0000 </r>
       <r>   -2.9457    1.0000 </r>
       <r>   -2.5244    1.0000 </r>
       <r>   -2.5182    1.0000 </r>
       <r>   -2.4797    1.0000 </r>
       <r>   -2.4042    1.0000 </r>
       <r>   -2.3823    1.0000 </r>
       <r>   -2.3404    1.0000 </r>
       <r>   -2.1800    1.0000 </r>
       <r>   -2.1234    1.0000 </r>
       <r>   -2.0567    1.0000 </r>
       <r>   -2.0220    1.0000 </r>
       <r>   -2.0034    1.0000 </r>
       <r>   -1.9907    1.0000 </r>
       <r>   -1.9338    1.0000 </r>
       <r>   -1.8833    1.0000 </r>
       <r>   -1.8428    1.0000 </r>
       <r>   -1.8065    1.0000 </r>
       <r>   -1.7400    1.0000 </r>
       <r>   -1.7193    1.0000 </r>
       <r>   -1.6411    1.0000 </r>
       <r>   -1.6278    1.0000 </r>
       <r>   -1.6037    1.0000 </r>
       <r>   -1.5769    1.0000 </r>
       <r>   -1.5329    1.0000 </r>
       <r>   -1.5128    1.0000 </r>
       <r>   -1.4791    1.0000 </r>
       <r>   -1.4672    1.0000 </r>
       <r>   -1.4539    1.0000 </r>
       <r>   -1.4418    1.0000 </r>
       <r>   -1.4341    1.0000 </r>
       <r>   -1.4103    1.0000 </r>
       <r>   -1.4036    1.0000 </r>
       <r>   -1.3891    1.0000 </r>
       <r>   -1.3867    1.0000 </r>
       <r>   -1.3760    1.0000 </r>
       <r>   -1.3489    1.0000 </r>
       <r>   -1.3437    1.0000 </r>
       <r>   -1.3357    1.0000 </r>
       <r>   -1.2962    1.0000 </r>
       <r>   -1.2795    1.0000 </r>
       <r>   -1.2653    1.0000 </r>
       <r>   -1.2483    1.0000 </r>
       <r>   -1.2426    1.0000 </r>
       <r>   -1.2271    1.0000 </r>
       <r>   -1.2211    1.0000 </r>
       <r>   -1.1959    1.0000 </r>
       <r>   -1.1666    1.0000 </r>
       <r>   -1.1343    1.0000 </r>
       <r>   -1.1126    1.0000 </r>
       <r>   -1.1083    1.0000 </r>
       <r>   -1.0756    1.0000 </r>
       <r>   -1.0423    1.0000 </r>
       <r>   -1.0137    1.0000 </r>
       <r>   -0.8726    1.0000 </r>
       <r>   -0.8506    1.0000 </r>
       <r>   -0.7022    1.0000 </r>
       <r>   -0.6283    1.0000 </r>
       <r>   -0.5344    1.0000 </r>
       <r>   -0.4387    1.0000 </r>
       <r>   -0.0317    1.0000 </r>
       <r>    0.0436    1.0000 </r>
       <r>    2.6335    0.0000 </r>
       <r>    2.8986    0.0000 </r>
       <r>    2.9241    0.0000 </r>
       <r>    2.9837    0.0000 </r>
       <r>    3.1633    0.0000 </r>
       <r>    3.2534    0.0000 </r>
       <r>    3.3105    0.0000 </r>
       <r>    3.3731    0.0000 </r>
       <r>    3.4435    0.0000 </r>
       <r>    4.0488    0.0000 </r>
       <r>    4.3539    0.0000 </r>
       <r>    4.3742    0.0000 </r>
       <r>    4.5579    0.0000 </r>
       <r>    4.5908    0.0000 </r>
       <r>    4.7959    0.0000 </r>
       <r>    4.8493    0.0000 </r>
       <r>    4.9867    0.0000 </r>
       <r>    5.3134    0.0000 </r>
       <r>    5.6019    0.0000 </r>
       <r>    5.6406    0.0000 </r>
       <r>    5.6871    0.0000 </r>
       <r>    5.8974    0.0000 </r>
       <r>    5.9416    0.0000 </r>
       <r>    6.0049    0.0000 </r>
       <r>    6.1059    0.0000 </r>
       <r>    6.1367    0.0000 </r>
       <r>    6.1798    0.0000 </r>
       <r>    6.2418    0.0000 </r>
       <r>    6.2782    0.0000 </r>
       <r>    6.3037    0.0000 </r>
       <r>    6.3505    0.0000 </r>
       <r>    6.4191    0.0000 </r>
       <r>    6.4592    0.0000 </r>
       <r>    6.5214    0.0000 </r>
       <r>    6.5800    0.0000 </r>
       <r>    6.6342    0.0000 </r>
      </set>
      <set comment="kpoint 3">
       <r>  -20.9204    1.0000 </r>
       <r>  -20.8764    1.0000 </r>
       <r>  -20.8275    1.0000 </r>
       <r>  -20.7403    1.0000 </r>
       <r>  -20.7366    1.0000 </r>
       <r>  -20.7205    1.0000 </r>
       <r>  -20.7162    1.0000 </r>
       <r>  -20.6681    1.0000 </r>
       <r>  -16.7104    1.0000 </r>
       <r>  -16.6833    1.0000 </r>
       <r>  -16.6726    1.0000 </r>
       <r>  -16.6557    1.0000 </r>
       <r>  -16.6070    1.0000 </r>
       <r>  -16.5984    1.0000 </r>
       <r>  -16.5866    1.0000 </r>
       <r>  -16.5745    1.0000 </r>
       <r>  -16.5730    1.0000 </r>
       <r>  -16.5534    1.0000 </r>
       <r>  -16.5389    1.0000 </r>
       <r>  -16.5031    1.0000 </r>
       <r>  -16.4514    1.0000 </r>
       <r>  -16.4404    1.0000 </r>
       <r>  -16.4306    1.0000 </r>
       <r>  -16.4295    1.0000 </r>
       <r>  -16.4233    1.0000 </r>
       <r>  -16.4176    1.0000 </r>
       <r>  -16.4144    1.0000 </r>
       <r>  -16.3967    1.0000 </r>
       <r>  -16.3843    1.0000 </r>
       <r>  -16.3560    1.0000 </r>
       <r>  -16.3557    1.0000 </r>
       <r>  -16.3379    1.0000 </r>
       <r>  -16.3209    1.0000 </r>
       <r>  -16.3154    1.0000 </r>
       <r>  -16.3096    1.0000 </r>
       <r>  -16.3044    1.0000 </r>
       <r>  -16.3013    1.0000 </r>
       <r>  -16.2978    1.0000 </r>
       <r>  -16.2924    1.0000 </r>
       <r>  -16.2890    1.0000 </r>
       <r>  -16.2837    1.0000 </r>
       <r>  -16.2750    1.0000 </r>
       <r>  -16.2709    1.0000 </r>
       <r>  -16.2688    1.0000 </r>
       <r>  -16.2589    1.0000 </r>
       <r>  -16.2462    1.0000 </r>
       <r>  -16.2406    1.0000 </r>
       <r>  -16.2344    1.0000 </r>
       <r>  -14.4806    1.0000 </r>
       <r>  -14.3893    1.0000 </r>
       <r>  -14.2986    1.0000 </r>
       <r>  -14.2608    1.0000 </r>
       <r>  -14.2152    1.0000 </r>
       <r>  -14.1386    1.0000 </r>
       <r>  -14.0910    1.0000 </r>
       <r>  -14.0809    1.0000 </r>
       <r>  -14.0629    1.0000 </r>
       <r>  -14.0541    1.0000 </r>
       <r>  -14.0399    1.0000 </r>
       <r>  -14.0139    1.0000 </r>
       <r>  -14.0000    1.0000 </r>
       <r>  -13.9972    1.0000 </r>
       <r>  -13.9834    1.0000 </r>
       <r>  -13.9440    1.0000 </r>
       <r>  -13.9191    1.0000 </r>
       <r>  -13.8621    1.0000 </r>
       <r>  -13.8588    1.0000 </r>
       <r>  -13.8200    1.0000 </r>
       <r>  -13.7933    1.0000 </r>
       <r>  -13.7497    1.0000 </r>
       <r>  -13.7240    1.0000 </r>
       <r>   -8.0302    1.0000 </r>
       <r>   -7.9424    1.0000 </r>
       <r>   -7.6405    1.0000 </r>
       <r>   -7.5114    1.0000 </r>
       <r>   -7.4613    1.0000 </r>
       <r>   -7.4484    1.0000 </r>
       <r>   -7.3577    1.0000 </r>
       <r>   -7.3179    1.0000 </r>
       <r>   -7.2940    1.0000 </r>
       <r>   -7.2827    1.0000 </r>
       <r>   -7.2582    1.0000 </r>
       <r>   -7.2480    1.0000 </r>
       <r>   -7.2454    1.0000 </r>
       <r>   -7.2223    1.0000 </r>
       <r>   -7.2094    1.0000 </r>
       <r>   -7.1653    1.0000 </r>
       <r>   -7.1611    1.0000 </r>
       <r>   -7.1519    1.0000 </r>
       <r>   -7.1508    1.0000 </r>
       <r>   -7.1353    1.0000 </r>
       <r>   -7.1312    1.0000 </r>
       <r>   -7.1276    1.0000 </r>
       <r>   -7.1190    1.0000 </r>
       <r>   -7.1137    1.0000 </r>
       <r>   -7.1072    1.0000 </r>
       <r>   -7.1044    1.0000 </r>
       <r>   -7.0967    1.0000 </r>
       <r>   -7.0862    1.0000 </r>
       <r>   -7.0678    1.0000 </r>
       <r>   -7.0502    1.0000 </r>
       <r>   -6.9677    1.0000 </r>
       <r>   -6.8881    1.0000 </r>
       <r>   -3.2898    1.0000 </r>
       <r>   -3.2464    1.0000 </r>
       <r>   -3.2290    1.0000 </r>
       <r>   -3.1967    1.0000 </r>
       <r>   -3.1561    1.0000 </r>
       <r>   -3.1375    1.0000 </r>
       <r>   -3.1125    1.0000 </r>
       <r>   -3.0336    1.0000 </r>
       <r>   -2.9377    1.0000 </r>
       <r>   -2.5533    1.0000 </r>
       <r>   -2.4803    1.0000 </r>
       <r>   -2.4615    1.0000 </r>
       <r>   -2.4407    1.0000 </r>
       <r>   -2.3852    1.0000 </r>
       <r>   -2.3663    1.0000 </r>
       <r>   -2.1384    1.0000 </r>
       <r>   -2.0874    1.0000 </r>
       <r>   -2.0825    1.0000 </r>
       <r>   -2.0254    1.0000 </r>
       <r>   -2.0130    1.0000 </r>
       <r>   -1.9978    1.0000 </r>
       <r>   -1.9046    1.0000 </r>
       <r>   -1.9014    1.0000 </r>
       <r>   -1.8543    1.0000 </r>
       <r>   -1.7938    1.0000 </r>
       <r>   -1.7759    1.0000 </r>
       <r>   -1.7571    1.0000 </r>
       <r>   -1.6808    1.0000 </r>
       <r>   -1.6658    1.0000 </r>
       <r>   -1.6522    1.0000 </r>
       <r>   -1.6088    1.0000 </r>
       <r>   -1.5371    1.0000 </r>
       <r>   -1.5035    1.0000 </r>
       <r>   -1.4952    1.0000 </r>
       <r>   -1.4845    1.0000 </r>
       <r>   -1.4649    1.0000 </r>
       <r>   -1.4260    1.0000 </r>
       <r>   -1.4210    1.0000 </r>
       <r>   -1.4044    1.0000 </r>
       <r>   -1.3956    1.0000 </r>
       <r>   -1.3830    1.0000 </r>
       <r>   -1.3701    1.0000 </r>
       <r>   -1.3602    1.0000 </r>
       <r>   -1.3554    1.0000 </r>
       <r>   -1.3443    1.0000 </r>
       <r>   -1.3316    1.0000 </r>
       <r>   -1.3105    1.0000 </r>
       <r>   -1.2967    1.0000 </r>
       <r>   -1.2935    1.0000 </r>
       <r>   -1.2572    1.0000 </r>
       <r>   -1.2279    1.0000 </r>
       <r>   -1.2221    1.0000 </r>
       <r>   -1.1773    1.0000 </r>
       <r>   -1.1606    1.0000 </r>
       <r>   -1.1460    1.0000 </r>
       <r>   -1.1270    1.0000 </r>
       <r>   -1.1180    1.0000 </r>
       <r>   -1.1055    1.0000 </r>
       <r>   -1.0963    1.0000 </r>
       <r>   -1.0721    1.0000 </r>
       <r>   -0.9869    1.0000 </r>
       <r>   -0.9050    1.0000 </r>
       <r>   -0.8558    1.0000 </r>
       <r>   -0.7211    1.0000 </r>
       <r>   -0.6382    1.0000 </r>
       <r>   -0.6079    1.0000 </r>
       <r>   -0.4573    1.0000 </r>
       <r>   -0.0961    1.0000 </r>
       <r>    0.0322    1.0000 </r>
       <r>    2.5341    0.0000 </r>
       <r>    2.8830    0.0000 </r>
       <r>    2.9893    0.0000 </r>
       <r>    3.0673    0.0000 </r>
       <r>    3.1940    0.0000 </r>
       <r>    3.2893    0.0000 </r>
       <r>    3.3338    0.0000 </r>
       <r>    3.3624    0.0000 </r>
       <r>    3.4338    0.0000 </r>
       <r>    3.9340    0.0000 </r>
       <r>    4.4263    0.0000 </r>
       <r>    4.4626    0.0000 </r>
       <r>    4.6462    0.0000 </r>
       <r>    4.6572    0.0000 </r>
       <r>    4.8591    0.0000 </r>
       <r>    4.9029    0.0000 </r>
       <r>    5.1331    0.0000 </r>
       <r>    5.4627    0.0000 </r>
       <r>    5.6499    0.0000 </r>
       <r>    5.6687    0.0000 </r>
       <r>    5.6967    0.0000 </r>
       <r>    5.7670    0.0000 </r>
       <r>    5.9041    0.0000 </r>
       <r>    5.9735    0.0000 </r>
       <r>    6.0389    0.0000 </r>
       <r>    6.0944    0.0000 </r>
       <r>    6.1381    0.0000 </r>
       <r>    6.2360    0.0000 </r>
       <r>    6.2616    0.0000 </r>
       <r>    6.3560    0.0000 </r>
       <r>    6.3719    0.0000 </r>
       <r>    6.4060    0.0000 </r>
       <r>    6.5027    0.0000 </r>
       <r>    6.5820    0.0000 </r>
       <r>    6.6069    0.0000 </r>
       <r>    6.6390    0.0000 </r>
      </set>
      <set comment="kpoint 4">
       <r>  -20.9204    1.0000 </r>
       <r>  -20.8764    1.0000 </r>
       <r>  -20.8275    1.0000 </r>
       <r>  -20.7403    1.0000 </r>
       <r>  -20.7366    1.0000 </r>
       <r>  -20.7205    1.0000 </r>
       <r>  -20.7163    1.0000 </r>
       <r>  -20.6681    1.0000 </r>
       <r>  -16.7100    1.0000 </r>
       <r>  -16.6831    1.0000 </r>
       <r>  -16.6705    1.0000 </r>
       <r>  -16.6557    1.0000 </r>
       <r>  -16.6070    1.0000 </r>
       <r>  -16.5985    1.0000 </r>
       <r>  -16.5867    1.0000 </r>
       <r>  -16.5745    1.0000 </r>
       <r>  -16.5730    1.0000 </r>
       <r>  -16.5534    1.0000 </r>
       <r>  -16.5389    1.0000 </r>
       <r>  -16.5031    1.0000 </r>
       <r>  -16.4514    1.0000 </r>
       <r>  -16.4389    1.0000 </r>
       <r>  -16.4259    1.0000 </r>
       <r>  -16.4259    1.0000 </r>
       <r>  -16.4176    1.0000 </r>
       <r>  -16.4058    1.0000 </r>
       <r>  -16.4051    1.0000 </r>
       <r>  -16.3997    1.0000 </r>
       <r>  -16.3968    1.0000 </r>
       <r>  -16.3681    1.0000 </r>
       <r>  -16.3624    1.0000 </r>
       <r>  -16.3450    1.0000 </r>
       <r>  -16.3210    1.0000 </r>
       <r>  -16.3154    1.0000 </r>
       <r>  -16.3096    1.0000 </r>
       <r>  -16.3045    1.0000 </r>
       <r>  -16.3013    1.0000 </r>
       <r>  -16.2979    1.0000 </r>
       <r>  -16.2924    1.0000 </r>
       <r>  -16.2891    1.0000 </r>
       <r>  -16.2837    1.0000 </r>
       <r>  -16.2750    1.0000 </r>
       <r>  -16.2710    1.0000 </r>
       <r>  -16.2688    1.0000 </r>
       <r>  -16.2589    1.0000 </r>
       <r>  -16.2462    1.0000 </r>
       <r>  -16.2407    1.0000 </r>
       <r>  -16.2344    1.0000 </r>
       <r>  -14.4774    1.0000 </r>
       <r>  -14.3850    1.0000 </r>
       <r>  -14.2917    1.0000 </r>
       <r>  -14.2690    1.0000 </r>
       <r>  -14.2090    1.0000 </r>
       <r>  -14.2024    1.0000 </r>
       <r>  -14.1310    1.0000 </r>
       <r>  -14.1123    1.0000 </r>
       <r>  -14.0554    1.0000 </r>
       <r>  -14.0387    1.0000 </r>
       <r>  -14.0224    1.0000 </r>
       <r>  -13.9964    1.0000 </r>
       <r>  -13.9807    1.0000 </r>
       <r>  -13.9451    1.0000 </r>
       <r>  -13.9357    1.0000 </r>
       <r>  -13.8998    1.0000 </r>
       <r>  -13.8933    1.0000 </r>
       <r>  -13.8890    1.0000 </r>
       <r>  -13.8565    1.0000 </r>
       <r>  -13.8314    1.0000 </r>
       <r>  -13.8258    1.0000 </r>
       <r>  -13.7908    1.0000 </r>
       <r>  -13.7347    1.0000 </r>
       <r>   -7.9353    1.0000 </r>
       <r>   -7.8005    1.0000 </r>
       <r>   -7.7202    1.0000 </r>
       <r>   -7.6741    1.0000 </r>
       <r>   -7.3640    1.0000 </r>
       <r>   -7.3343    1.0000 </r>
       <r>   -7.3201    1.0000 </r>
       <r>   -7.2994    1.0000 </r>
       <r>   -7.2925    1.0000 </r>
       <r>   -7.2811    1.0000 </r>
       <r>   -7.2637    1.0000 </r>
       <r>   -7.2599    1.0000 </r>
       <r>   -7.2445    1.0000 </r>
       <r>   -7.2254    1.0000 </r>
       <r>   -7.2142    1.0000 </r>
       <r>   -7.2074    1.0000 </r>
       <r>   -7.1909    1.0000 </r>
       <r>   -7.1619    1.0000 </r>
       <r>   -7.1535    1.0000 </r>
       <r>   -7.1495    1.0000 </r>
       <r>   -7.1394    1.0000 </r>
       <r>   -7.1385    1.0000 </r>
       <r>   -7.1309    1.0000 </r>
       <r>   -7.1246    1.0000 </r>
       <r>   -7.1183    1.0000 </r>
       <r>   -7.1043    1.0000 </r>
       <r>   -7.0990    1.0000 </r>
       <r>   -7.0962    1.0000 </r>
       <r>   -7.0817    1.0000 </r>
       <r>   -7.0745    1.0000 </r>
       <r>   -7.0582    1.0000 </r>
       <r>   -7.0071    1.0000 </r>
       <r>   -3.2263    1.0000 </r>
       <r>   -3.2083    1.0000 </r>
       <r>   -3.1670    1.0000 </r>
       <r>   -3.1444    1.0000 </r>
       <r>   -3.0743    1.0000 </r>
       <r>   -3.0095    1.0000 </r>
       <r>   -2.6893    1.0000 </r>
       <r>   -2.6040    1.0000 </r>
       <r>   -2.5800    1.0000 </r>
       <r>   -2.5745    1.0000 </r>
       <r>   -2.5399    1.0000 </r>
       <r>   -2.4584    1.0000 </r>
       <r>   -2.3492    1.0000 </r>
       <r>   -2.3375    1.0000 </r>
       <r>   -2.3286    1.0000 </r>
       <r>   -2.3094    1.0000 </r>
       <r>   -2.3036    1.0000 </r>
       <r>   -2.2880    1.0000 </r>
       <r>   -2.1457    1.0000 </r>
       <r>   -2.0665    1.0000 </r>
       <r>   -2.0453    1.0000 </r>
       <r>   -2.0032    1.0000 </r>
       <r>   -1.9685    1.0000 </r>
       <r>   -1.9040    1.0000 </r>
       <r>   -1.7988    1.0000 </r>
       <r>   -1.7925    1.0000 </r>
       <r>   -1.7635    1.0000 </r>
       <r>   -1.7283    1.0000 </r>
       <r>   -1.6889    1.0000 </r>
       <r>   -1.6589    1.0000 </r>
       <r>   -1.6465    1.0000 </r>
       <r>   -1.6054    1.0000 </r>
       <r>   -1.5899    1.0000 </r>
       <r>   -1.5732    1.0000 </r>
       <r>   -1.5560    1.0000 </r>
       <r>   -1.5238    1.0000 </r>
       <r>   -1.4797    1.0000 </r>
       <r>   -1.4579    1.0000 </r>
       <r>   -1.4389    1.0000 </r>
       <r>   -1.3997    1.0000 </r>
       <r>   -1.3828    1.0000 </r>
       <r>   -1.3777    1.0000 </r>
       <r>   -1.3552    1.0000 </r>
       <r>   -1.3351    1.0000 </r>
       <r>   -1.3200    1.0000 </r>
       <r>   -1.3081    1.0000 </r>
       <r>   -1.2924    1.0000 </r>
       <r>   -1.2559    1.0000 </r>
       <r>   -1.2492    1.0000 </r>
       <r>   -1.2404    1.0000 </r>
       <r>   -1.2144    1.0000 </r>
       <r>   -1.2082    1.0000 </r>
       <r>   -1.1713    1.0000 </r>
       <r>   -1.1464    1.0000 </r>
       <r>   -1.1460    1.0000 </r>
       <r>   -1.1363    1.0000 </r>
       <r>   -1.1251    1.0000 </r>
       <r>   -1.1095    1.0000 </r>
       <r>   -1.0977    1.0000 </r>
       <r>   -1.0782    1.0000 </r>
       <r>   -1.0081    1.0000 </r>
       <r>   -0.9306    1.0000 </r>
       <r>   -0.8926    1.0000 </r>
       <r>   -0.8616    1.0000 </r>
       <r>   -0.7486    1.0000 </r>
       <r>   -0.5396    1.0000 </r>
       <r>   -0.5153    1.0000 </r>
       <r>   -0.4539    1.0000 </r>
       <r>   -0.2030    1.0000 </r>
       <r>    2.6418    0.0000 </r>
       <r>    3.0116    0.0000 </r>
       <r>    3.0747    0.0000 </r>
       <r>    3.1884    0.0000 </r>
       <r>    3.2410    0.0000 </r>
       <r>    3.3709    0.0000 </r>
       <r>    4.0181    0.0000 </r>
       <r>    4.3223    0.0000 </r>
       <r>    4.3450    0.0000 </r>
       <r>    4.4187    0.0000 </r>
       <r>    4.4797    0.0000 </r>
       <r>    4.5337    0.0000 </r>
       <r>    4.5947    0.0000 </r>
       <r>    4.6107    0.0000 </r>
       <r>    4.6886    0.0000 </r>
       <r>    4.7224    0.0000 </r>
       <r>    4.7879    0.0000 </r>
       <r>    4.8514    0.0000 </r>
       <r>    4.9248    0.0000 </r>
       <r>    5.0362    0.0000 </r>
       <r>    5.6886    0.0000 </r>
       <r>    5.7463    0.0000 </r>
       <r>    5.8027    0.0000 </r>
       <r>    5.8718    0.0000 </r>
       <r>    5.9233    0.0000 </r>
       <r>    5.9443    0.0000 </r>
       <r>    6.0640    0.0000 </r>
       <r>    6.1252    0.0000 </r>
       <r>    6.2007    0.0000 </r>
       <r>    6.2645    0.0000 </r>
       <r>    6.3034    0.0000 </r>
       <r>    6.3350    0.0000 </r>
       <r>    6.3936    0.0000 </r>
       <r>    6.4903    0.0000 </r>
       <r>    6.5565    0.0000 </r>
       <r>    6.5776    0.0000 </r>
      </set>
      <set comment="kpoint 5">
       <r>  -20.9204    1.0000 </r>
       <r>  -20.8764    1.0000 </r>
       <r>  -20.8275    1.0000 </r>
       <r>  -20.7403    1.0000 </r>
       <r>  -20.7366    1.0000 </r>
       <r>  -20.7205    1.0000 </r>
       <r>  -20.7163    1.0000 </r>
       <r>  -20.6681    1.0000 </r>
       <r>  -16.7099    1.0000 </r>
       <r>  -16.6837    1.0000 </r>
       <r>  -16.6707    1.0000 </r>
       <r>  -16.6561    1.0000 </r>
       <r>  -16.6071    1.0000 </r>
       <r>  -16.5985    1.0000 </r>
       <r>  -16.5862    1.0000 </r>
       <r>  -16.5745    1.0000 </r>
       <r>  -16.5730    1.0000 </r>
       <r>  -16.5534    1.0000 </r>
       <r>  -16.5389    1.0000 </r>
       <r>  -16.4993    1.0000 </r>
       <r>  -16.4564    1.0000 </r>
       <r>  -16.4514    1.0000 </r>
       <r>  -16.4282    1.0000 </r>
       <r>  -16.4233    1.0000 </r>
       <r>  -16.4209    1.0000 </r>
       <r>  -16.4186    1.0000 </r>
       <r>  -16.4176    1.0000 </r>
       <r>  -16.4099    1.0000 </r>
       <r>  -16.3748    1.0000 </r>
       <r>  -16.3652    1.0000 </r>
       <r>  -16.3414    1.0000 </r>
       <r>  -16.3355    1.0000 </r>
       <r>  -16.3210    1.0000 </r>
       <r>  -16.3154    1.0000 </r>
       <r>  -16.3095    1.0000 </r>
       <r>  -16.3045    1.0000 </r>
       <r>  -16.3012    1.0000 </r>
       <r>  -16.2978    1.0000 </r>
       <r>  -16.2923    1.0000 </r>
       <r>  -16.2891    1.0000 </r>
       <r>  -16.2838    1.0000 </r>
       <r>  -16.2750    1.0000 </r>
       <r>  -16.2709    1.0000 </r>
       <r>  -16.2688    1.0000 </r>
       <r>  -16.2589    1.0000 </r>
       <r>  -16.2462    1.0000 </r>
       <r>  -16.2407    1.0000 </r>
       <r>  -16.2344    1.0000 </r>
       <r>  -14.4865    1.0000 </r>
       <r>  -14.3713    1.0000 </r>
       <r>  -14.3181    1.0000 </r>
       <r>  -14.2650    1.0000 </r>
       <r>  -14.1631    1.0000 </r>
       <r>  -14.1555    1.0000 </r>
       <r>  -14.1116    1.0000 </r>
       <r>  -14.1060    1.0000 </r>
       <r>  -14.0744    1.0000 </r>
       <r>  -14.0604    1.0000 </r>
       <r>  -14.0329    1.0000 </r>
       <r>  -14.0091    1.0000 </r>
       <r>  -14.0000    1.0000 </r>
       <r>  -13.9972    1.0000 </r>
       <r>  -13.9792    1.0000 </r>
       <r>  -13.9733    1.0000 </r>
       <r>  -13.8543    1.0000 </r>
       <r>  -13.8493    1.0000 </r>
       <r>  -13.8390    1.0000 </r>
       <r>  -13.8098    1.0000 </r>
       <r>  -13.7957    1.0000 </r>
       <r>  -13.7897    1.0000 </r>
       <r>  -13.7361    1.0000 </r>
       <r>   -7.9858    1.0000 </r>
       <r>   -7.9747    1.0000 </r>
       <r>   -7.6210    1.0000 </r>
       <r>   -7.5779    1.0000 </r>
       <r>   -7.4714    1.0000 </r>
       <r>   -7.4207    1.0000 </r>
       <r>   -7.3488    1.0000 </r>
       <r>   -7.3220    1.0000 </r>
       <r>   -7.2928    1.0000 </r>
       <r>   -7.2777    1.0000 </r>
       <r>   -7.2594    1.0000 </r>
       <r>   -7.2510    1.0000 </r>
       <r>   -7.2423    1.0000 </r>
       <r>   -7.2276    1.0000 </r>
       <r>   -7.2107    1.0000 </r>
       <r>   -7.1654    1.0000 </r>
       <r>   -7.1611    1.0000 </r>
       <r>   -7.1528    1.0000 </r>
       <r>   -7.1448    1.0000 </r>
       <r>   -7.1395    1.0000 </r>
       <r>   -7.1348    1.0000 </r>
       <r>   -7.1327    1.0000 </r>
       <r>   -7.1209    1.0000 </r>
       <r>   -7.1144    1.0000 </r>
       <r>   -7.1049    1.0000 </r>
       <r>   -7.1024    1.0000 </r>
       <r>   -7.0971    1.0000 </r>
       <r>   -7.0859    1.0000 </r>
       <r>   -7.0681    1.0000 </r>
       <r>   -7.0441    1.0000 </r>
       <r>   -7.0243    1.0000 </r>
       <r>   -6.8114    1.0000 </r>
       <r>   -3.3676    1.0000 </r>
       <r>   -3.2758    1.0000 </r>
       <r>   -3.2669    1.0000 </r>
       <r>   -3.1985    1.0000 </r>
       <r>   -3.1808    1.0000 </r>
       <r>   -3.1283    1.0000 </r>
       <r>   -3.1079    1.0000 </r>
       <r>   -2.9435    1.0000 </r>
       <r>   -2.6023    1.0000 </r>
       <r>   -2.5496    1.0000 </r>
       <r>   -2.5108    1.0000 </r>
       <r>   -2.5062    1.0000 </r>
       <r>   -2.4463    1.0000 </r>
       <r>   -2.3907    1.0000 </r>
       <r>   -2.3655    1.0000 </r>
       <r>   -2.3065    1.0000 </r>
       <r>   -2.1635    1.0000 </r>
       <r>   -2.1157    1.0000 </r>
       <r>   -2.0501    1.0000 </r>
       <r>   -2.0243    1.0000 </r>
       <r>   -2.0083    1.0000 </r>
       <r>   -1.9114    1.0000 </r>
       <r>   -1.8811    1.0000 </r>
       <r>   -1.8518    1.0000 </r>
       <r>   -1.8223    1.0000 </r>
       <r>   -1.7823    1.0000 </r>
       <r>   -1.7221    1.0000 </r>
       <r>   -1.6805    1.0000 </r>
       <r>   -1.6586    1.0000 </r>
       <r>   -1.6159    1.0000 </r>
       <r>   -1.5872    1.0000 </r>
       <r>   -1.5431    1.0000 </r>
       <r>   -1.5169    1.0000 </r>
       <r>   -1.4893    1.0000 </r>
       <r>   -1.4612    1.0000 </r>
       <r>   -1.4556    1.0000 </r>
       <r>   -1.4407    1.0000 </r>
       <r>   -1.4228    1.0000 </r>
       <r>   -1.4100    1.0000 </r>
       <r>   -1.3909    1.0000 </r>
       <r>   -1.3855    1.0000 </r>
       <r>   -1.3668    1.0000 </r>
       <r>   -1.3593    1.0000 </r>
       <r>   -1.3484    1.0000 </r>
       <r>   -1.3154    1.0000 </r>
       <r>   -1.3039    1.0000 </r>
       <r>   -1.2974    1.0000 </r>
       <r>   -1.2870    1.0000 </r>
       <r>   -1.2722    1.0000 </r>
       <r>   -1.2414    1.0000 </r>
       <r>   -1.2359    1.0000 </r>
       <r>   -1.2302    1.0000 </r>
       <r>   -1.2128    1.0000 </r>
       <r>   -1.1905    1.0000 </r>
       <r>   -1.1618    1.0000 </r>
       <r>   -1.1475    1.0000 </r>
       <r>   -1.1219    1.0000 </r>
       <r>   -1.0853    1.0000 </r>
       <r>   -1.0622    1.0000 </r>
       <r>   -1.0416    1.0000 </r>
       <r>   -1.0134    1.0000 </r>
       <r>   -0.9311    1.0000 </r>
       <r>   -0.8878    1.0000 </r>
       <r>   -0.7801    1.0000 </r>
       <r>   -0.5815    1.0000 </r>
       <r>   -0.5297    1.0000 </r>
       <r>   -0.4444    1.0000 </r>
       <r>   -0.2533    1.0000 </r>
       <r>    0.0769    1.0000 </r>
       <r>    2.7065    0.0000 </r>
       <r>    2.9629    0.0000 </r>
       <r>    2.9684    0.0000 </r>
       <r>    2.9772    0.0000 </r>
       <r>    3.0872    0.0000 </r>
       <r>    3.2980    0.0000 </r>
       <r>    3.3436    0.0000 </r>
       <r>    3.4150    0.0000 </r>
       <r>    4.1184    0.0000 </r>
       <r>    4.1716    0.0000 </r>
       <r>    4.2557    0.0000 </r>
       <r>    4.4638    0.0000 </r>
       <r>    4.5171    0.0000 </r>
       <r>    4.5934    0.0000 </r>
       <r>    4.6596    0.0000 </r>
       <r>    4.7558    0.0000 </r>
       <r>    4.8583    0.0000 </r>
       <r>    5.2423    0.0000 </r>
       <r>    5.3329    0.0000 </r>
       <r>    5.5880    0.0000 </r>
       <r>    5.6790    0.0000 </r>
       <r>    5.8307    0.0000 </r>
       <r>    5.9363    0.0000 </r>
       <r>    5.9905    0.0000 </r>
       <r>    6.0624    0.0000 </r>
       <r>    6.0963    0.0000 </r>
       <r>    6.1258    0.0000 </r>
       <r>    6.1852    0.0000 </r>
       <r>    6.2788    0.0000 </r>
       <r>    6.3285    0.0000 </r>
       <r>    6.3930    0.0000 </r>
       <r>    6.4122    0.0000 </r>
       <r>    6.4942    0.0000 </r>
       <r>    6.5179    0.0000 </r>
       <r>    6.6097    0.0000 </r>
       <r>    6.6524    0.0000 </r>
      </set>
      <set comment="kpoint 6">
       <r>  -20.9204    1.0000 </r>
       <r>  -20.8764    1.0000 </r>
       <r>  -20.8275    1.0000 </r>
       <r>  -20.7402    1.0000 </r>
       <r>  -20.7366    1.0000 </r>
       <r>  -20.7205    1.0000 </r>
       <r>  -20.7163    1.0000 </r>
       <r>  -20.6681    1.0000 </r>
       <r>  -16.7094    1.0000 </r>
       <r>  -16.6834    1.0000 </r>
       <r>  -16.6687    1.0000 </r>
       <r>  -16.6561    1.0000 </r>
       <r>  -16.6070    1.0000 </r>
       <r>  -16.5985    1.0000 </r>
       <r>  -16.5863    1.0000 </r>
       <r>  -16.5745    1.0000 </r>
       <r>  -16.5730    1.0000 </r>
       <r>  -16.5534    1.0000 </r>
       <r>  -16.5389    1.0000 </r>
       <r>  -16.4993    1.0000 </r>
       <r>  -16.4522    1.0000 </r>
       <r>  -16.4513    1.0000 </r>
       <r>  -16.4237    1.0000 </r>
       <r>  -16.4214    1.0000 </r>
       <r>  -16.4186    1.0000 </r>
       <r>  -16.4176    1.0000 </r>
       <r>  -16.4082    1.0000 </r>
       <r>  -16.4049    1.0000 </r>
       <r>  -16.3844    1.0000 </r>
       <r>  -16.3728    1.0000 </r>
       <r>  -16.3523    1.0000 </r>
       <r>  -16.3404    1.0000 </r>
       <r>  -16.3210    1.0000 </r>
       <r>  -16.3154    1.0000 </r>
       <r>  -16.3095    1.0000 </r>
       <r>  -16.3045    1.0000 </r>
       <r>  -16.3012    1.0000 </r>
       <r>  -16.2978    1.0000 </r>
       <r>  -16.2924    1.0000 </r>
       <r>  -16.2891    1.0000 </r>
       <r>  -16.2837    1.0000 </r>
       <r>  -16.2750    1.0000 </r>
       <r>  -16.2709    1.0000 </r>
       <r>  -16.2688    1.0000 </r>
       <r>  -16.2589    1.0000 </r>
       <r>  -16.2462    1.0000 </r>
       <r>  -16.2407    1.0000 </r>
       <r>  -16.2344    1.0000 </r>
       <r>  -14.4791    1.0000 </r>
       <r>  -14.3850    1.0000 </r>
       <r>  -14.2836    1.0000 </r>
       <r>  -14.2657    1.0000 </r>
       <r>  -14.2451    1.0000 </r>
       <r>  -14.1580    1.0000 </r>
       <r>  -14.1086    1.0000 </r>
       <r>  -14.1065    1.0000 </r>
       <r>  -14.0845    1.0000 </r>
       <r>  -14.0648    1.0000 </r>
       <r>  -14.0597    1.0000 </r>
       <r>  -14.0085    1.0000 </r>
       <r>  -14.0039    1.0000 </r>
       <r>  -13.9266    1.0000 </r>
       <r>  -13.8937    1.0000 </r>
       <r>  -13.8880    1.0000 </r>
       <r>  -13.8781    1.0000 </r>
       <r>  -13.8619    1.0000 </r>
       <r>  -13.8423    1.0000 </r>
       <r>  -13.8296    1.0000 </r>
       <r>  -13.8217    1.0000 </r>
       <r>  -13.8019    1.0000 </r>
       <r>  -13.7770    1.0000 </r>
       <r>   -7.8853    1.0000 </r>
       <r>   -7.7702    1.0000 </r>
       <r>   -7.7504    1.0000 </r>
       <r>   -7.7127    1.0000 </r>
       <r>   -7.4744    1.0000 </r>
       <r>   -7.3529    1.0000 </r>
       <r>   -7.3297    1.0000 </r>
       <r>   -7.3135    1.0000 </r>
       <r>   -7.2884    1.0000 </r>
       <r>   -7.2807    1.0000 </r>
       <r>   -7.2664    1.0000 </r>
       <r>   -7.2478    1.0000 </r>
[...]
        <r>  0.0001  0.0018  0.0005 </r>
        <r>  0.0001  0.0016  0.0002 </r>
        <r>  0.0018  0.0014  0.0019 </r>
        <r>  0.0001  0.0069  0.0009 </r>
        <r>  0.0002  0.0024  0.0009 </r>
        <r>  0.0002  0.0020  0.0013 </r>
        <r>  0.0007  0.0023  0.0007 </r>
        <r>  0.0001  0.0002  0.0005 </r>
        <r>  0.0005  0.0003  0.0017 </r>
       </set>
       <set comment="band 199">
        <r>  0.0001  0.0003  0.0029 </r>
        <r>  0.0002  0.0002  0.0071 </r>
        <r>  0.0088  0.0001  0.0097 </r>
        <r>  0.0007  0.0014  0.0175 </r>
        <r>  0.0004  0.0000  0.0052 </r>
        <r>  0.0012  0.0007  0.0055 </r>
        <r>  0.0005  0.0007  0.0134 </r>
        <r>  0.0054  0.0004  0.0126 </r>
        <r>  0.0000  0.0064  0.0001 </r>
        <r>  0.0000  0.0069  0.0004 </r>
        <r>  0.0000  0.0015  0.0003 </r>
        <r>  0.0000  0.0014  0.0003 </r>
        <r>  0.0000  0.0006  0.0000 </r>
        <r>  0.0000  0.0034  0.0003 </r>
        <r>  0.0000  0.0055  0.0001 </r>
        <r>  0.0002  0.0041  0.0004 </r>
        <r>  0.0002  0.0036  0.0029 </r>
        <r>  0.0017  0.0005  0.0014 </r>
        <r>  0.0001  0.0028  0.0005 </r>
        <r>  0.0010  0.0011  0.0012 </r>
        <r>  0.0013  0.0010  0.0037 </r>
        <r>  0.0000  0.0017  0.0004 </r>
        <r>  0.0000  0.0022  0.0004 </r>
        <r>  0.0001  0.0023  0.0004 </r>
        <r>  0.0000  0.0033  0.0003 </r>
        <r>  0.0002  0.0025  0.0008 </r>
        <r>  0.0007  0.0020  0.0009 </r>
        <r>  0.0003  0.0020  0.0014 </r>
        <r>  0.0005  0.0004  0.0004 </r>
        <r>  0.0006  0.0021  0.0013 </r>
        <r>  0.0004  0.0013  0.0011 </r>
        <r>  0.0007  0.0044  0.0015 </r>
        <r>  0.0008  0.0002  0.0014 </r>
        <r>  0.0003  0.0016  0.0013 </r>
        <r>  0.0002  0.0019  0.0004 </r>
        <r>  0.0009  0.0022  0.0015 </r>
        <r>  0.0007  0.0005  0.0008 </r>
        <r>  0.0000  0.0009  0.0004 </r>
        <r>  0.0014  0.0009  0.0017 </r>
       </set>
       <set comment="band 200">
        <r>  0.0017  0.0006  0.0088 </r>
        <r>  0.0005  0.0002  0.0061 </r>
        <r>  0.0071  0.0000  0.0069 </r>
        <r>  0.0018  0.0004  0.0141 </r>
        <r>  0.0018  0.0002  0.0104 </r>
        <r>  0.0003  0.0000  0.0064 </r>
        <r>  0.0005  0.0002  0.0069 </r>
        <r>  0.0063  0.0021  0.0095 </r>
        <r>  0.0000  0.0008  0.0003 </r>
        <r>  0.0000  0.0046  0.0003 </r>
        <r>  0.0000  0.0034  0.0000 </r>
        <r>  0.0000  0.0011  0.0001 </r>
        <r>  0.0001  0.0028  0.0003 </r>
        <r>  0.0000  0.0043  0.0007 </r>
        <r>  0.0000  0.0025  0.0000 </r>
        <r>  0.0002  0.0063  0.0001 </r>
        <r>  0.0029  0.0028  0.0027 </r>
        <r>  0.0001  0.0013  0.0024 </r>
        <r>  0.0003  0.0018  0.0009 </r>
        <r>  0.0000  0.0050  0.0013 </r>
        <r>  0.0000  0.0062  0.0021 </r>
        <r>  0.0004  0.0037  0.0009 </r>
        <r>  0.0001  0.0016  0.0015 </r>
        <r>  0.0029  0.0002  0.0016 </r>
        <r>  0.0000  0.0008  0.0005 </r>
        <r>  0.0015  0.0038  0.0017 </r>
        <r>  0.0000  0.0019  0.0004 </r>
        <r>  0.0006  0.0012  0.0006 </r>
        <r>  0.0005  0.0007  0.0010 </r>
        <r>  0.0000  0.0027  0.0001 </r>
        <r>  0.0000  0.0013  0.0011 </r>
        <r>  0.0002  0.0041  0.0006 </r>
        <r>  0.0003  0.0011  0.0005 </r>
        <r>  0.0020  0.0011  0.0012 </r>
        <r>  0.0004  0.0001  0.0007 </r>
        <r>  0.0007  0.0016  0.0007 </r>
        <r>  0.0002  0.0041  0.0003 </r>
        <r>  0.0001  0.0030  0.0013 </r>
        <r>  0.0001  0.0010  0.0011 </r>
       </set>
       <set comment="band 201">
        <r>  0.0094  0.0015  0.0105 </r>
        <r>  0.0001  0.0007  0.0104 </r>
        <r>  0.0035  0.0001  0.0063 </r>
        <r>  0.0001  0.0001  0.0079 </r>
        <r>  0.0039  0.0011  0.0053 </r>
        <r>  0.0037  0.0008  0.0077 </r>
        <r>  0.0002  0.0003  0.0013 </r>
        <r>  0.0004  0.0009  0.0058 </r>
        <r>  0.0000  0.0032  0.0002 </r>
        <r>  0.0001  0.0009  0.0004 </r>
        <r>  0.0000  0.0060  0.0001 </r>
        <r>  0.0000  0.0105  0.0001 </r>
        <r>  0.0000  0.0018  0.0001 </r>
        <r>  0.0001  0.0112  0.0001 </r>
        <r>  0.0000  0.0044  0.0001 </r>
        <r>  0.0000  0.0137  0.0004 </r>
        <r>  0.0003  0.0001  0.0001 </r>
        <r>  0.0002  0.0093  0.0006 </r>
        <r>  0.0005  0.0015  0.0004 </r>
        <r>  0.0019  0.0034  0.0021 </r>
        <r>  0.0002  0.0012  0.0007 </r>
        <r>  0.0000  0.0022  0.0019 </r>
        <r>  0.0024  0.0013  0.0034 </r>
        <r>  0.0000  0.0031  0.0011 </r>
        <r>  0.0019  0.0083  0.0007 </r>
        <r>  0.0003  0.0027  0.0005 </r>
        <r>  0.0001  0.0027  0.0001 </r>
        <r>  0.0001  0.0040  0.0006 </r>
        <r>  0.0013  0.0044  0.0019 </r>
        <r>  0.0002  0.0004  0.0004 </r>
        <r>  0.0021  0.0001  0.0010 </r>
        <r>  0.0004  0.0008  0.0012 </r>
        <r>  0.0000  0.0013  0.0004 </r>
        <r>  0.0002  0.0013  0.0020 </r>
        <r>  0.0000  0.0016  0.0002 </r>
        <r>  0.0004  0.0024  0.0006 </r>
        <r>  0.0003  0.0004  0.0014 </r>
        <r>  0.0033  0.0027  0.0022 </r>
        <r>  0.0000  0.0006  0.0013 </r>
       </set>
       <set comment="band 202">
        <r>  0.0057  0.0002  0.0147 </r>
        <r>  0.0042  0.0001  0.0069 </r>
        <r>  0.0013  0.0006  0.0047 </r>
        <r>  0.0008  0.0014  0.0118 </r>
        <r>  0.0098  0.0018  0.0029 </r>
        <r>  0.0015  0.0013  0.0036 </r>
        <r>  0.0000  0.0001  0.0046 </r>
        <r>  0.0002  0.0004  0.0014 </r>
        <r>  0.0000  0.0055  0.0000 </r>
        <r>  0.0002  0.0080  0.0001 </r>
        <r>  0.0000  0.0019  0.0001 </r>
        <r>  0.0000  0.0030  0.0001 </r>
        <r>  0.0000  0.0074  0.0001 </r>
        <r>  0.0000  0.0114  0.0002 </r>
        <r>  0.0000  0.0070  0.0001 </r>
        <r>  0.0001  0.0175  0.0003 </r>
        <r>  0.0001  0.0029  0.0003 </r>
        <r>  0.0001  0.0034  0.0006 </r>
        <r>  0.0015  0.0023  0.0020 </r>
        <r>  0.0006  0.0048  0.0019 </r>
        <r>  0.0000  0.0033  0.0002 </r>
        <r>  0.0007  0.0012  0.0016 </r>
        <r>  0.0009  0.0015  0.0025 </r>
        <r>  0.0032  0.0053  0.0037 </r>
        <r>  0.0009  0.0043  0.0009 </r>
        <r>  0.0000  0.0008  0.0004 </r>
        <r>  0.0013  0.0005  0.0009 </r>
        <r>  0.0001  0.0015  0.0004 </r>
        <r>  0.0000  0.0011  0.0004 </r>
        <r>  0.0000  0.0029  0.0004 </r>
        <r>  0.0000  0.0022  0.0012 </r>
        <r>  0.0016  0.0041  0.0024 </r>
        <r>  0.0010  0.0010  0.0023 </r>
        <r>  0.0009  0.0006  0.0007 </r>
        <r>  0.0000  0.0006  0.0002 </r>
        <r>  0.0001  0.0040  0.0006 </r>
        <r>  0.0002  0.0015  0.0003 </r>
        <r>  0.0000  0.0026  0.0008 </r>
        <r>  0.0001  0.0023  0.0029 </r>
       </set>
       <set comment="band 203">
        <r>  0.0019  0.0023  0.0034 </r>
        <r>  0.0095  0.0014  0.0088 </r>
        <r>  0.0000  0.0002  0.0073 </r>
        <r>  0.0000  0.0002  0.0063 </r>
        <r>  0.0001  0.0005  0.0147 </r>
        <r>  0.0085  0.0008  0.0043 </r>
        <r>  0.0003  0.0003  0.0039 </r>
        <r>  0.0014  0.0002  0.0055 </r>
        <r>  0.0000  0.0051  0.0003 </r>
        <r>  0.0001  0.0047  0.0001 </r>
        <r>  0.0000  0.0068  0.0001 </r>
        <r>  0.0000  0.0006  0.0002 </r>
        <r>  0.0000  0.0076  0.0002 </r>
        <r>  0.0000  0.0003  0.0003 </r>
        <r>  0.0000  0.0008  0.0005 </r>
        <r>  0.0000  0.0111  0.0002 </r>
        <r>  0.0000  0.0063  0.0004 </r>
        <r>  0.0000  0.0008  0.0002 </r>
        <r>  0.0021  0.0045  0.0025 </r>
        <r>  0.0017  0.0015  0.0022 </r>
        <r>  0.0004  0.0037  0.0012 </r>
        <r>  0.0037  0.0038  0.0043 </r>
        <r>  0.0001  0.0006  0.0019 </r>
        <r>  0.0001  0.0028  0.0015 </r>
        <r>  0.0001  0.0007  0.0011 </r>
        <r>  0.0002  0.0024  0.0007 </r>
        <r>  0.0001  0.0009  0.0004 </r>
        <r>  0.0007  0.0055  0.0008 </r>
        <r>  0.0000  0.0008  0.0006 </r>
        <r>  0.0008  0.0021  0.0008 </r>
        <r>  0.0001  0.0013  0.0002 </r>
        <r>  0.0000  0.0017  0.0004 </r>
        <r>  0.0001  0.0025  0.0012 </r>
        <r>  0.0014  0.0008  0.0011 </r>
        <r>  0.0002  0.0002  0.0008 </r>
        <r>  0.0015  0.0005  0.0015 </r>
        <r>  0.0012  0.0033  0.0017 </r>
        <r>  0.0001  0.0011  0.0013 </r>
        <r>  0.0000  0.0014  0.0007 </r>
       </set>
       <set comment="band 204">
        <r>  0.0000  0.0008  0.0040 </r>
        <r>  0.0000  0.0011  0.0100 </r>
        <r>  0.0001  0.0001  0.0046 </r>
        <r>  0.0086  0.0001  0.0093 </r>
        <r>  0.0038  0.0015  0.0240 </r>
        <r>  0.0013  0.0002  0.0059 </r>
        <r>  0.0002  0.0011  0.0142 </r>
        <r>  0.0002  0.0006  0.0066 </r>
        <r>  0.0000  0.0088  0.0004 </r>
        <r>  0.0002  0.0066  0.0002 </r>
        <r>  0.0000  0.0023  0.0001 </r>
        <r>  0.0000  0.0011  0.0002 </r>
        <r>  0.0000  0.0088  0.0001 </r>
        <r>  0.0000  0.0146  0.0001 </r>
        <r>  0.0000  0.0005  0.0002 </r>
        <r>  0.0000  0.0028  0.0003 </r>
        <r>  0.0008  0.0041  0.0019 </r>
        <r>  0.0003  0.0022  0.0008 </r>
        <r>  0.0004  0.0022  0.0012 </r>
        <r>  0.0008  0.0017  0.0010 </r>
        <r>  0.0000  0.0016  0.0003 </r>
        <r>  0.0010  0.0022  0.0009 </r>
        <r>  0.0003  0.0027  0.0011 </r>
        <r>  0.0004  0.0039  0.0018 </r>
        <r>  0.0000  0.0016  0.0004 </r>
        <r>  0.0001  0.0002  0.0006 </r>
        <r>  0.0002  0.0012  0.0010 </r>
        <r>  0.0009  0.0013  0.0025 </r>
        <r>  0.0002  0.0032  0.0008 </r>
        <r>  0.0000  0.0021  0.0003 </r>
        <r>  0.0001  0.0033  0.0006 </r>
        <r>  0.0020  0.0013  0.0018 </r>
        <r>  0.0001  0.0024  0.0005 </r>
        <r>  0.0001  0.0014  0.0001 </r>
        <r>  0.0037  0.0009  0.0033 </r>
        <r>  0.0004  0.0005  0.0009 </r>
        <r>  0.0000  0.0022  0.0023 </r>
        <r>  0.0000  0.0010  0.0009 </r>
        <r>  0.0009  0.0032  0.0020 </r>
       </set>
       <set comment="band 205">
        <r>  0.0008  0.0001  0.0024 </r>
        <r>  0.0000  0.0008  0.0244 </r>
        <r>  0.0031  0.0008  0.0150 </r>
        <r>  0.0073  0.0000  0.0136 </r>
        <r>  0.0000  0.0003  0.0144 </r>
        <r>  0.0005  0.0002  0.0092 </r>
        <r>  0.0001  0.0013  0.0067 </r>
        <r>  0.0004  0.0009  0.0054 </r>
        <r>  0.0000  0.0022  0.0004 </r>
        <r>  0.0000  0.0045  0.0002 </r>
        <r>  0.0000  0.0101  0.0006 </r>
        <r>  0.0000  0.0010  0.0003 </r>
        <r>  0.0000  0.0040  0.0002 </r>
        <r>  0.0000  0.0005  0.0008 </r>
        <r>  0.0000  0.0075  0.0004 </r>
        <r>  0.0000  0.0036  0.0009 </r>
        <r>  0.0014  0.0017  0.0025 </r>
        <r>  0.0001  0.0051  0.0007 </r>
        <r>  0.0000  0.0048  0.0009 </r>
        <r>  0.0002  0.0028  0.0012 </r>
        <r>  0.0019  0.0010  0.0027 </r>
        <r>  0.0001  0.0009  0.0003 </r>
        <r>  0.0000  0.0005  0.0011 </r>
        <r>  0.0000  0.0012  0.0005 </r>
        <r>  0.0001  0.0004  0.0021 </r>
        <r>  0.0000  0.0010  0.0005 </r>
        <r>  0.0018  0.0011  0.0022 </r>
        <r>  0.0002  0.0020  0.0011 </r>
        <r>  0.0007  0.0003  0.0005 </r>
        <r>  0.0013  0.0022  0.0025 </r>
        <r>  0.0002  0.0032  0.0008 </r>
        <r>  0.0004  0.0003  0.0019 </r>
        <r>  0.0001  0.0011  0.0021 </r>
        <r>  0.0001  0.0008  0.0006 </r>
        <r>  0.0000  0.0019  0.0012 </r>
        <r>  0.0006  0.0010  0.0011 </r>
        <r>  0.0000  0.0019  0.0017 </r>
        <r>  0.0000  0.0025  0.0008 </r>
        <r>  0.0008  0.0009  0.0012 </r>
       </set>
       <set comment="band 206">
        <r>  0.0009  0.0003  0.0076 </r>
        <r>  0.0005  0.0000  0.0063 </r>
        <r>  0.0000  0.0006  0.0326 </r>
        <r>  0.0001  0.0000  0.0166 </r>
        <r>  0.0001  0.0001  0.0104 </r>
        <r>  0.0000  0.0002  0.0154 </r>
        <r>  0.0002  0.0009  0.0249 </r>
        <r>  0.0023  0.0001  0.0106 </r>
        <r>  0.0000  0.0013  0.0006 </r>
        <r>  0.0001  0.0037  0.0008 </r>
        <r>  0.0000  0.0020  0.0003 </r>
        <r>  0.0000  0.0097  0.0002 </r>
        <r>  0.0000  0.0009  0.0002 </r>
        <r>  0.0000  0.0041  0.0010 </r>
        <r>  0.0000  0.0072  0.0006 </r>
        <r>  0.0001  0.0075  0.0003 </r>
        <r>  0.0001  0.0023  0.0019 </r>
        <r>  0.0001  0.0009  0.0002 </r>
        <r>  0.0001  0.0003  0.0009 </r>
        <r>  0.0000  0.0003  0.0003 </r>
        <r>  0.0011  0.0004  0.0013 </r>
        <r>  0.0002  0.0001  0.0002 </r>
        <r>  0.0001  0.0002  0.0002 </r>
        <r>  0.0001  0.0011  0.0004 </r>
        <r>  0.0001  0.0037  0.0013 </r>
        <r>  0.0018  0.0009  0.0025 </r>
        <r>  0.0000  0.0006  0.0017 </r>
        <r>  0.0005  0.0027  0.0013 </r>
        <r>  0.0000  0.0011  0.0007 </r>
        <r>  0.0001  0.0020  0.0043 </r>
        <r>  0.0001  0.0003  0.0022 </r>
        <r>  0.0007  0.0006  0.0012 </r>
        <r>  0.0007  0.0016  0.0019 </r>
        <r>  0.0001  0.0003  0.0014 </r>
        <r>  0.0000  0.0010  0.0020 </r>
        <r>  0.0000  0.0022  0.0025 </r>
        <r>  0.0011  0.0027  0.0014 </r>
        <r>  0.0013  0.0004  0.0023 </r>
        <r>  0.0000  0.0005  0.0012 </r>
       </set>
       <set comment="band 207">
        <r>  0.0016  0.0000  0.0137 </r>
        <r>  0.0003  0.0007  0.0094 </r>
        <r>  0.0001  0.0007  0.0286 </r>
        <r>  0.0001  0.0001  0.0123 </r>
        <r>  0.0013  0.0003  0.0103 </r>
        <r>  0.0019  0.0001  0.0171 </r>
        <r>  0.0000  0.0005  0.0150 </r>
        <r>  0.0000  0.0002  0.0096 </r>
        <r>  0.0001  0.0040  0.0002 </r>
        <r>  0.0000  0.0063  0.0002 </r>
        <r>  0.0000  0.0080  0.0002 </r>
        <r>  0.0001  0.0027  0.0006 </r>
        <r>  0.0000  0.0048  0.0004 </r>
        <r>  0.0001  0.0011  0.0003 </r>
        <r>  0.0001  0.0018  0.0007 </r>
        <r>  0.0000  0.0070  0.0004 </r>
        <r>  0.0003  0.0008  0.0006 </r>
        <r>  0.0000  0.0013  0.0009 </r>
        <r>  0.0002  0.0012  0.0015 </r>
        <r>  0.0001  0.0019  0.0005 </r>
        <r>  0.0000  0.0015  0.0003 </r>
        <r>  0.0004  0.0011  0.0018 </r>
        <r>  0.0001  0.0002  0.0003 </r>
        <r>  0.0002  0.0002  0.0015 </r>
        <r>  0.0015  0.0018  0.0021 </r>
        <r>  0.0004  0.0015  0.0009 </r>
        <r>  0.0005  0.0032  0.0015 </r>
        <r>  0.0011  0.0002  0.0015 </r>
        <r>  0.0000  0.0007  0.0017 </r>
        <r>  0.0007  0.0030  0.0028 </r>
        <r>  0.0003  0.0019  0.0013 </r>
        <r>  0.0013  0.0009  0.0031 </r>
        <r>  0.0000  0.0007  0.0011 </r>
        <r>  0.0009  0.0021  0.0017 </r>
        <r>  0.0001  0.0020  0.0006 </r>
        <r>  0.0008  0.0036  0.0020 </r>
        <r>  0.0002  0.0001  0.0015 </r>
        <r>  0.0004  0.0002  0.0023 </r>
        <r>  0.0001  0.0005  0.0005 </r>
       </set>
       <set comment="band 208">
        <r>  0.0002  0.0010  0.0053 </r>
        <r>  0.0003  0.0001  0.0043 </r>
        <r>  0.0002  0.0024  0.0177 </r>
        <r>  0.0001  0.0011  0.0109 </r>
        <r>  0.0001  0.0001  0.0180 </r>
        <r>  0.0016  0.0002  0.0267 </r>
        <r>  0.0001  0.0003  0.0081 </r>
        <r>  0.0075  0.0003  0.0064 </r>
        <r>  0.0000  0.0023  0.0002 </r>
        <r>  0.0001  0.0021  0.0005 </r>
        <r>  0.0000  0.0052  0.0006 </r>
        <r>  0.0000  0.0095  0.0008 </r>
        <r>  0.0000  0.0028  0.0005 </r>
        <r>  0.0000  0.0050  0.0004 </r>
        <r>  0.0000  0.0042  0.0001 </r>
        <r>  0.0000  0.0018  0.0005 </r>
        <r>  0.0002  0.0007  0.0005 </r>
        <r>  0.0025  0.0025  0.0034 </r>
        <r>  0.0002  0.0018  0.0004 </r>
        <r>  0.0001  0.0020  0.0007 </r>
        <r>  0.0002  0.0026  0.0020 </r>
        <r>  0.0005  0.0018  0.0026 </r>
        <r>  0.0002  0.0024  0.0012 </r>
        <r>  0.0002  0.0005  0.0004 </r>
        <r>  0.0002  0.0017  0.0010 </r>
        <r>  0.0004  0.0009  0.0021 </r>
        <r>  0.0001  0.0011  0.0002 </r>
        <r>  0.0000  0.0009  0.0008 </r>
        <r>  0.0038  0.0005  0.0041 </r>
        <r>  0.0000  0.0009  0.0015 </r>
        <r>  0.0002  0.0014  0.0010 </r>
        <r>  0.0001  0.0017  0.0017 </r>
        <r>  0.0001  0.0019  0.0009 </r>
        <r>  0.0009  0.0012  0.0020 </r>
        <r>  0.0002  0.0057  0.0009 </r>
        <r>  0.0005  0.0008  0.0023 </r>
        <r>  0.0002  0.0010  0.0008 </r>
        <r>  0.0006  0.0019  0.0006 </r>
        <r>  0.0001  0.0012  0.0008 </r>
       </set>
      </set>
     </set>
    </set>
   </array>
  </projected>
 </calculation>
 <structure name="finalpos" >
  <crystal>
   <varray name="basis" >
    <v>       8.45648900       0.00000000       8.04030100 </v>
    <v>       0.00000000      11.72984700       0.00000000 </v>
    <v>      -8.45648900       0.00000000       8.04030100 </v>
   </varray>
   <i name="volume">   1595.08833419 </i>
   <varray name="rec_basis" >
    <v>       0.05912619      -0.00000000       0.06218673 </v>
    <v>       0.00000000       0.08525260      -0.00000000 </v>
    <v>      -0.05912619       0.00000000       0.06218673 </v>
   </varray>
  </crystal>
  <varray name="positions" >
   <v>       0.26614500       0.24676200       0.19840100 </v>
   <v>       0.77689600       0.24488100       0.71499700 </v>
   <v>       0.71960300       0.75268600       0.26385800 </v>
   <v>       0.20082700       0.75479600       0.77772600 </v>
   <v>       0.29095700       0.23798900       0.74540800 </v>
   <v>       0.79306700       0.24844100       0.22484800 </v>
   <v>       0.73456400       0.74936300       0.80738700 </v>
   <v>       0.22507200       0.75391600       0.26337700 </v>
   <v>       0.99632600       0.00093500       0.99958900 </v>
   <v>       0.49486600       0.00359300       0.50025700 </v>
   <v>       0.49994400       0.99683900       0.00043800 </v>
   <v>       0.00044400       0.00374900       0.49997200 </v>
   <v>       0.50040000       0.49806700       0.00029000 </v>
   <v>       0.00365700       0.50377700       0.50040500 </v>
   <v>       0.99997200       0.49878000       0.99995000 </v>
   <v>       0.51165600       0.48782300       0.49802500 </v>
   <v>       0.46906700       0.74761900       0.96343100 </v>
   <v>       0.97950100       0.75306800       0.45859000 </v>
   <v>       0.97083600       0.25006100       0.96916300 </v>
   <v>       0.44462000       0.24432000       0.47221800 </v>
   <v>       0.01369600       0.74969300       0.02611100 </v>
   <v>       0.52571700       0.24765600       0.03409500 </v>
   <v>       0.03521100       0.25608600       0.54129300 </v>
   <v>       0.24729200       0.47140500       0.94687800 </v>
   <v>       0.76195000       0.47459600       0.44684000 </v>
   <v>       0.45524000       0.53334900       0.24887400 </v>
   <v>       0.94972800       0.53519100       0.74626500 </v>
   <v>       0.55202900       0.02792000       0.75132000 </v>
   <v>       0.04705100       0.03584300       0.25248800 </v>
   <v>       0.74965700       0.97092300       0.05193700 </v>
   <v>       0.24995500       0.96999200       0.55624000 </v>
   <v>       0.24550200       0.02175000       0.95766200 </v>
   <v>       0.74234900       0.03691600       0.45272400 </v>
   <v>       0.45591800       0.95973900       0.25048900 </v>
   <v>       0.94780900       0.96592500       0.74725700 </v>
   <v>       0.75210700       0.52738800       0.05249900 </v>
   <v>       0.55170700       0.46156500       0.74828100 </v>
   <v>       0.05585300       0.46820300       0.25399000 </v>
   <v>       0.37550000       0.65673700       0.53634500 </v>
  </varray>
 </structure>
</modeling>
