CsPbBr3 cubic bulk                      
           1
     8.456489    0.000000    8.040301
     0.000000   11.729847    0.000000
    -8.456489    0.000000    8.040301
   Cs   Pb   Br
   8   8  23
Direct configuration=     1
   0.26614500  0.24676200  0.19840100
   0.77689600  0.24488100  0.71499700
   0.71960300  0.75268600  0.26385800
   0.20082700  0.75479600  0.77772600
   0.29095700  0.23798900  0.74540800
   0.79306700  0.24844100  0.22484800
   0.73456400  0.74936300  0.80738700
   0.22507200  0.75391600  0.26337700
   0.99632600  0.00093500  0.99958900
   0.49486600  0.00359300  0.50025700
   0.49994400  0.99683900  0.00043800
   0.00044400  0.00374900  0.49997200
   0.50040000  0.49806700  0.00029000
   0.00365700  0.50377700  0.50040500
   0.99997200  0.49878000  0.99995000
   0.51165600  0.48782300  0.49802500
   0.46906700  0.74761900  0.96343100
   0.97950100  0.75306800  0.45859000
   0.97083600  0.25006100  0.96916300
   0.44462000  0.24432000  0.47221800
   0.01369600  0.74969300  0.02611100
   0.52571700  0.24765600  0.03409500
   0.03521100  0.25608600  0.54129300
   0.24729200  0.47140500  0.94687800
   0.76195000  0.47459600  0.44684000
   0.45524000  0.53334900  0.24887400
   0.94972800  0.53519100  0.74626500
   0.55202900  0.02792000  0.75132000
   0.04705100  0.03584300  0.25248800
   0.74965700  0.97092300  0.05193700
   0.24995500  0.96999200  0.55624000
   0.24550200  0.02175000  0.95766200
   0.74234900  0.03691600  0.45272400
   0.45591800  0.95973900  0.25048900
   0.94780900  0.96592500  0.74725700
   0.75210700  0.52738800  0.05249900
   0.55170700  0.46156500  0.74828100
   0.05585300  0.46820300  0.25399000
   0.37550000  0.65673700  0.53634500
