  40  40   1   0
  0.4040437E+02  0.1173535E-08  0.1173535E-08  0.1173535E-08  0.5000000E-15
   1.0000000000000000E-004
  CAR 
 CsPbBr3 cubic bulk                      
      8.12345457    -22.22024231  301      0.56281677      1.00000000
    -22.220  0.0000E+00  0.0000E+00
    -22.119  0.0000E+00  0.0000E+00
    -22.018  0.0000E+00  0.0000E+00
    -21.917  0.0000E+00  0.0000E+00
    -21.816  0.0000E+00  0.0000E+00
    -21.715  0.0000E+00  0.0000E+00
    -21.613  0.0000E+00  0.0000E+00
    -21.512  0.0000E+00  0.0000E+00
    -21.411  0.0000E+00  0.0000E+00
    -21.310  0.0000E+00  0.0000E+00
    -21.209  0.0000E+00  0.0000E+00
    -21.108  0.0000E+00  0.0000E+00
    -21.006  0.0000E+00  0.0000E+00
    -20.905  0.0000E+00  0.0000E+00
    -20.804  0.1582E+03  0.1600E+02
    -20.703  0.0000E+00  0.1600E+02
    -20.602  0.0000E+00  0.1600E+02
    -20.501  0.0000E+00  0.1600E+02
    -20.400  0.0000E+00  0.1600E+02
    -20.298  0.0000E+00  0.1600E+02
    -20.197  0.0000E+00  0.1600E+02
    -20.096  0.0000E+00  0.1600E+02
    -19.995  0.0000E+00  0.1600E+02
    -19.894  0.0000E+00  0.1600E+02
    -19.793  0.0000E+00  0.1600E+02
    -19.692  0.0000E+00  0.1600E+02
    -19.590  0.0000E+00  0.1600E+02
    -19.489  0.0000E+00  0.1600E+02
    -19.388  0.0000E+00  0.1600E+02
    -19.287  0.0000E+00  0.1600E+02
    -19.186  0.0000E+00  0.1600E+02
    -19.085  0.0000E+00  0.1600E+02
    -18.984  0.0000E+00  0.1600E+02
    -18.882  0.0000E+00  0.1600E+02
    -18.781  0.0000E+00  0.1600E+02
    -18.680  0.0000E+00  0.1600E+02
    -18.579  0.0000E+00  0.1600E+02
    -18.478  0.0000E+00  0.1600E+02
    -18.377  0.0000E+00  0.1600E+02
    -18.276  0.0000E+00  0.1600E+02
    -18.174  0.0000E+00  0.1600E+02
    -18.073  0.0000E+00  0.1600E+02
    -17.972  0.0000E+00  0.1600E+02
    -17.871  0.0000E+00  0.1600E+02
    -17.770  0.0000E+00  0.1600E+02
    -17.669  0.0000E+00  0.1600E+02
    -17.568  0.0000E+00  0.1600E+02
    -17.466  0.0000E+00  0.1600E+02
    -17.365  0.0000E+00  0.1600E+02
    -17.264  0.0000E+00  0.1600E+02
    -17.163  0.0000E+00  0.1600E+02
    -17.062  0.0000E+00  0.1600E+02
    -16.961  0.0000E+00  0.1600E+02
    -16.860  0.0000E+00  0.1600E+02
    -16.758  0.0000E+00  0.1600E+02
    -16.657  0.0000E+00  0.1600E+02
    -16.556  0.0000E+00  0.1600E+02
    -16.455  0.4057E+02  0.2010E+02
    -16.354  0.2076E+03  0.4800E+02
    -16.253  0.4746E+03  0.9600E+02
    -16.152  0.0000E+00  0.9600E+02
    -16.050  0.0000E+00  0.9600E+02
    -15.949  0.0000E+00  0.9600E+02
    -15.848  0.0000E+00  0.9600E+02
    -15.747  0.0000E+00  0.9600E+02
    -15.646  0.0000E+00  0.9600E+02
    -15.545  0.0000E+00  0.9600E+02
    -15.443  0.0000E+00  0.9600E+02
    -15.342  0.0000E+00  0.9600E+02
    -15.241  0.0000E+00  0.9600E+02
    -15.140  0.0000E+00  0.9600E+02
    -15.039  0.0000E+00  0.9600E+02
    -14.938  0.0000E+00  0.9600E+02
    -14.837  0.0000E+00  0.9600E+02
    -14.735  0.0000E+00  0.9600E+02
    -14.634  0.0000E+00  0.9600E+02
    -14.533  0.0000E+00  0.9600E+02
    -14.432  0.0000E+00  0.9600E+02
    -14.331  0.2466E+01  0.9625E+02
    -14.230  0.4238E+02  0.1005E+03
    -14.129  0.3782E+02  0.1046E+03
    -14.027  0.5579E+02  0.1121E+03
    -13.926  0.2719E+02  0.1237E+03
    -13.825  0.1154E+03  0.1354E+03
    -13.724  0.5600E+02  0.1439E+03
    -13.623  0.0000E+00  0.1440E+03
    -13.522  0.0000E+00  0.1440E+03
    -13.421  0.0000E+00  0.1440E+03
    -13.319  0.0000E+00  0.1440E+03
    -13.218  0.0000E+00  0.1440E+03
    -13.117  0.0000E+00  0.1440E+03
    -13.016  0.0000E+00  0.1440E+03
    -12.915  0.0000E+00  0.1440E+03
    -12.814  0.0000E+00  0.1440E+03
    -12.713  0.0000E+00  0.1440E+03
    -12.611  0.0000E+00  0.1440E+03
    -12.510  0.0000E+00  0.1440E+03
    -12.409  0.0000E+00  0.1440E+03
    -12.308  0.0000E+00  0.1440E+03
    -12.207  0.0000E+00  0.1440E+03
    -12.106  0.0000E+00  0.1440E+03
    -12.005  0.0000E+00  0.1440E+03
    -11.903  0.0000E+00  0.1440E+03
    -11.802  0.0000E+00  0.1440E+03
    -11.701  0.0000E+00  0.1440E+03
    -11.600  0.0000E+00  0.1440E+03
    -11.499  0.0000E+00  0.1440E+03
    -11.398  0.0000E+00  0.1440E+03
    -11.297  0.0000E+00  0.1440E+03
    -11.195  0.0000E+00  0.1440E+03
    -11.094  0.0000E+00  0.1440E+03
    -10.993  0.0000E+00  0.1440E+03
    -10.892  0.0000E+00  0.1440E+03
    -10.791  0.0000E+00  0.1440E+03
    -10.690  0.0000E+00  0.1440E+03
    -10.588  0.0000E+00  0.1440E+03
    -10.487  0.0000E+00  0.1440E+03
    -10.386  0.0000E+00  0.1440E+03
    -10.285  0.0000E+00  0.1440E+03
    -10.184  0.0000E+00  0.1440E+03
    -10.083  0.0000E+00  0.1440E+03
     -9.982  0.0000E+00  0.1440E+03
     -9.880  0.0000E+00  0.1440E+03
     -9.779  0.0000E+00  0.1440E+03
     -9.678  0.0000E+00  0.1440E+03
     -9.577  0.0000E+00  0.1440E+03
     -9.476  0.0000E+00  0.1440E+03
     -9.375  0.0000E+00  0.1440E+03
     -9.274  0.0000E+00  0.1440E+03
     -9.172  0.0000E+00  0.1440E+03
     -9.071  0.0000E+00  0.1440E+03
     -8.970  0.0000E+00  0.1440E+03
     -8.869  0.0000E+00  0.1440E+03
     -8.768  0.0000E+00  0.1440E+03
     -8.667  0.0000E+00  0.1440E+03
     -8.566  0.0000E+00  0.1440E+03
     -8.464  0.0000E+00  0.1440E+03
     -8.363  0.0000E+00  0.1440E+03
     -8.262  0.0000E+00  0.1440E+03
     -8.161  0.2469E+01  0.1442E+03
     -8.060  0.0000E+00  0.1442E+03
     -7.959  0.5417E+01  0.1448E+03
     -7.858  0.0000E+00  0.1458E+03
     -7.756  0.3654E-02  0.1458E+03
     -7.655  0.3707E+02  0.1495E+03
     -7.554  0.2755E-08  0.1495E+03
     -7.453  0.4080E+02  0.1536E+03
     -7.352  0.3842E-14  0.1545E+03
     -7.251  0.9766E+02  0.1644E+03
     -7.150  0.2286E+03  0.2026E+03
     -7.048  0.1236E+02  0.2062E+03
     -6.947  0.0000E+00  0.2062E+03
     -6.846  0.1463E+02  0.2077E+03
     -6.745  0.0000E+00  0.2078E+03
     -6.644  0.0000E+00  0.2078E+03
     -6.543  0.1646E-03  0.2078E+03
     -6.442  0.2472E+01  0.2080E+03
     -6.340  0.0000E+00  0.2080E+03
     -6.239  0.0000E+00  0.2080E+03
     -6.138  0.0000E+00  0.2080E+03
     -6.037  0.0000E+00  0.2080E+03
     -5.936  0.0000E+00  0.2080E+03
     -5.835  0.0000E+00  0.2080E+03
     -5.734  0.0000E+00  0.2080E+03
     -5.632  0.0000E+00  0.2080E+03
     -5.531  0.0000E+00  0.2080E+03
     -5.430  0.0000E+00  0.2080E+03
     -5.329  0.0000E+00  0.2080E+03
     -5.228  0.0000E+00  0.2080E+03
     -5.127  0.0000E+00  0.2080E+03
     -5.025  0.0000E+00  0.2080E+03
     -4.924  0.0000E+00  0.2080E+03
     -4.823  0.0000E+00  0.2080E+03
     -4.722  0.0000E+00  0.2080E+03
     -4.621  0.0000E+00  0.2080E+03
     -4.520  0.0000E+00  0.2080E+03
     -4.419  0.0000E+00  0.2080E+03
     -4.317  0.0000E+00  0.2080E+03
     -4.216  0.0000E+00  0.2080E+03
     -4.115  0.0000E+00  0.2080E+03
     -4.014  0.0000E+00  0.2080E+03
     -3.913  0.0000E+00  0.2080E+03
     -3.812  0.0000E+00  0.2080E+03
     -3.711  0.0000E+00  0.2080E+03
     -3.609  0.0000E+00  0.2080E+03
     -3.508  0.0000E+00  0.2080E+03
     -3.407  0.0000E+00  0.2080E+03
     -3.306  0.3105E+01  0.2083E+03
     -3.205  0.4874E+02  0.2139E+03
     -3.104  0.3707E+02  0.2192E+03
     -3.003  0.7415E+01  0.2200E+03
     -2.901  0.0000E+00  0.2200E+03
     -2.800  0.0000E+00  0.2200E+03
     -2.699  0.1033E-10  0.2200E+03
     -2.598  0.3976E+02  0.2240E+03
     -2.497  0.4593E+02  0.2301E+03
     -2.396  0.2966E+02  0.2345E+03
     -2.295  0.4449E+02  0.2390E+03
     -2.193  0.3958E+02  0.2430E+03
     -2.092  0.7415E+01  0.2447E+03
     -1.991  0.6370E+02  0.2512E+03
     -1.890  0.1473E+02  0.2532E+03
     -1.789  0.2031E+02  0.2556E+03
     -1.688  0.3318E+02  0.2604E+03
     -1.587  0.8871E+02  0.2695E+03
     -1.485  0.4244E+02  0.2765E+03
     -1.384  0.9699E+02  0.2871E+03
     -1.283  0.1523E+03  0.3044E+03
     -1.182  0.6889E+02  0.3145E+03
     -1.081  0.1166E+03  0.3275E+03
     -0.980  0.2496E+02  0.3348E+03
     -0.879  0.2126E+02  0.3377E+03
     -0.777  0.2966E+02  0.3427E+03
     -0.676  0.2216E+01  0.3430E+03
     -0.575  0.5042E+01  0.3435E+03
     -0.474  0.1977E+02  0.3465E+03
     -0.373  0.2966E+02  0.3495E+03
     -0.272  0.0000E+00  0.3495E+03
     -0.170  0.3189E-06  0.3495E+03
     -0.069  0.7415E+01  0.3502E+03
      0.032  0.1007E+02  0.3513E+03
      0.133  0.0000E+00  0.3518E+03
      0.234  0.0000E+00  0.3518E+03
      0.335  0.0000E+00  0.3518E+03
      0.436  0.2814E-11  0.3518E+03
      0.538  0.2472E+01  0.3520E+03
      0.639  0.0000E+00  0.3520E+03
      0.740  0.0000E+00  0.3520E+03
      0.841  0.0000E+00  0.3520E+03
      0.942  0.0000E+00  0.3520E+03
      1.043  0.0000E+00  0.3520E+03
      1.144  0.0000E+00  0.3520E+03
      1.246  0.0000E+00  0.3520E+03
      1.347  0.0000E+00  0.3520E+03
      1.448  0.0000E+00  0.3520E+03
      1.549  0.0000E+00  0.3520E+03
      1.650  0.0000E+00  0.3520E+03
      1.751  0.0000E+00  0.3520E+03
      1.852  0.0000E+00  0.3520E+03
      1.954  0.0000E+00  0.3520E+03
      2.055  0.0000E+00  0.3520E+03
      2.156  0.0000E+00  0.3520E+03
      2.257  0.0000E+00  0.3520E+03
      2.358  0.0000E+00  0.3520E+03
      2.459  0.0000E+00  0.3520E+03
      2.560  0.0000E+00  0.3520E+03
      2.662  0.0000E+00  0.3520E+03
      2.763  0.2235E+01  0.3522E+03
      2.864  0.4943E+01  0.3527E+03
      2.965  0.5135E+01  0.3533E+03
      3.066  0.4943E+01  0.3558E+03
      3.167  0.2490E+02  0.3583E+03
      3.268  0.2472E+01  0.3602E+03
      3.370  0.2783E+02  0.3631E+03
      3.471  0.0000E+00  0.3632E+03
      3.572  0.2125E+01  0.3635E+03
      3.673  0.0000E+00  0.3640E+03
      3.774  0.0000E+00  0.3640E+03
      3.875  0.0000E+00  0.3640E+03
      3.976  0.0000E+00  0.3640E+03
      4.078  0.0000E+00  0.3640E+03
      4.179  0.0000E+00  0.3640E+03
      4.280  0.9900E+01  0.3650E+03
      4.381  0.2841E+02  0.3684E+03
      4.482  0.2198E+02  0.3707E+03
      4.583  0.1510E+02  0.3740E+03
      4.685  0.4236E+02  0.3798E+03
      4.786  0.3691E+02  0.3842E+03
      4.887  0.2974E+02  0.3873E+03
      4.988  0.0000E+00  0.3882E+03
      5.089  0.0000E+00  0.3882E+03
      5.190  0.0000E+00  0.3882E+03
      5.291  0.0000E+00  0.3882E+03
      5.393  0.0000E+00  0.3882E+03
      5.494  0.1467E+02  0.3897E+03
      5.595  0.4123E-04  0.3898E+03
      5.696  0.7415E+01  0.3905E+03
      5.797  0.1704E+01  0.3907E+03
      5.898  0.1971E+02  0.3945E+03
      5.999  0.3229E+02  0.3978E+03
      6.101  0.1976E+02  0.4017E+03
      6.202  0.4798E+02  0.4066E+03
      6.303  0.3608E+02  0.4109E+03
      6.404  0.2617E+02  0.4136E+03
      6.505  0.1484E+02  0.4153E+03
      6.606  0.3356E+02  0.4204E+03
      6.707  0.5415E+02  0.4265E+03
      6.809  0.2224E+02  0.4320E+03
      6.910  0.0000E+00  0.4320E+03
      7.011  0.0000E+00  0.4320E+03
      7.112  0.0000E+00  0.4320E+03
      7.213  0.0000E+00  0.4320E+03
      7.314  0.0000E+00  0.4320E+03
      7.415  0.0000E+00  0.4320E+03
      7.517  0.0000E+00  0.4320E+03
      7.618  0.0000E+00  0.4320E+03
      7.719  0.0000E+00  0.4320E+03
      7.820  0.0000E+00  0.4320E+03
      7.921  0.0000E+00  0.4320E+03
      8.022  0.0000E+00  0.4320E+03
      8.123  0.0000E+00  0.4320E+03
      8.12345457    -22.22024231  301      0.56281677      1.00000000
    -22.220  0.0000E+00  0.0000E+00  0.0000E+00
    -22.119  0.0000E+00  0.0000E+00  0.0000E+00
    -22.018  0.0000E+00  0.0000E+00  0.0000E+00
    -21.917  0.0000E+00  0.0000E+00  0.0000E+00
    -21.816  0.0000E+00  0.0000E+00  0.0000E+00
    -21.715  0.0000E+00  0.0000E+00  0.0000E+00
    -21.613  0.0000E+00  0.0000E+00  0.0000E+00
    -21.512  0.0000E+00  0.0000E+00  0.0000E+00
    -21.411  0.0000E+00  0.0000E+00  0.0000E+00
    -21.310  0.0000E+00  0.0000E+00  0.0000E+00
    -21.209  0.0000E+00  0.0000E+00  0.0000E+00
    -21.108  0.0000E+00  0.0000E+00  0.0000E+00
    -21.006  0.0000E+00  0.0000E+00  0.0000E+00
    -20.905  0.0000E+00  0.0000E+00  0.0000E+00
    -20.804  0.1755E+02  0.9899E-05  0.5289E-05
    -20.703  0.0000E+00  0.0000E+00  0.0000E+00
    -20.602  0.0000E+00  0.0000E+00  0.0000E+00
    -20.501  0.0000E+00  0.0000E+00  0.0000E+00
    -20.400  0.0000E+00  0.0000E+00  0.0000E+00
    -20.298  0.0000E+00  0.0000E+00  0.0000E+00
    -20.197  0.0000E+00  0.0000E+00  0.0000E+00
    -20.096  0.0000E+00  0.0000E+00  0.0000E+00
    -19.995  0.0000E+00  0.0000E+00  0.0000E+00
    -19.894  0.0000E+00  0.0000E+00  0.0000E+00
    -19.793  0.0000E+00  0.0000E+00  0.0000E+00
    -19.692  0.0000E+00  0.0000E+00  0.0000E+00
    -19.590  0.0000E+00  0.0000E+00  0.0000E+00
    -19.489  0.0000E+00  0.0000E+00  0.0000E+00
    -19.388  0.0000E+00  0.0000E+00  0.0000E+00
    -19.287  0.0000E+00  0.0000E+00  0.0000E+00
    -19.186  0.0000E+00  0.0000E+00  0.0000E+00
    -19.085  0.0000E+00  0.0000E+00  0.0000E+00
    -18.984  0.0000E+00  0.0000E+00  0.0000E+00
    -18.882  0.0000E+00  0.0000E+00  0.0000E+00
    -18.781  0.0000E+00  0.0000E+00  0.0000E+00
    -18.680  0.0000E+00  0.0000E+00  0.0000E+00
    -18.579  0.0000E+00  0.0000E+00  0.0000E+00
    -18.478  0.0000E+00  0.0000E+00  0.0000E+00
    -18.377  0.0000E+00  0.0000E+00  0.0000E+00
    -18.276  0.0000E+00  0.0000E+00  0.0000E+00
    -18.174  0.0000E+00  0.0000E+00  0.0000E+00
    -18.073  0.0000E+00  0.0000E+00  0.0000E+00
    -17.972  0.0000E+00  0.0000E+00  0.0000E+00
    -17.871  0.0000E+00  0.0000E+00  0.0000E+00
    -17.770  0.0000E+00  0.0000E+00  0.0000E+00
    -17.669  0.0000E+00  0.0000E+00  0.0000E+00
    -17.568  0.0000E+00  0.0000E+00  0.0000E+00
    -17.466  0.0000E+00  0.0000E+00  0.0000E+00
    -17.365  0.0000E+00  0.0000E+00  0.0000E+00
    -17.264  0.0000E+00  0.0000E+00  0.0000E+00
    -17.163  0.0000E+00  0.0000E+00  0.0000E+00
    -17.062  0.0000E+00  0.0000E+00  0.0000E+00
    -16.961  0.0000E+00  0.0000E+00  0.0000E+00
    -16.860  0.0000E+00  0.0000E+00  0.0000E+00
    -16.758  0.0000E+00  0.0000E+00  0.0000E+00
    -16.657  0.0000E+00  0.0000E+00  0.0000E+00
    -16.556  0.0000E+00  0.0000E+00  0.0000E+00
    -16.455  0.5764E-04  0.2110E-04  0.3442E-05
    -16.354  0.9114E-04  0.1045E-03  0.1455E-04
    -16.253  0.3333E-04  0.1927E-04  0.2062E-05
    -16.152  0.0000E+00  0.0000E+00  0.0000E+00
    -16.050  0.0000E+00  0.0000E+00  0.0000E+00
    -15.949  0.0000E+00  0.0000E+00  0.0000E+00
    -15.848  0.0000E+00  0.0000E+00  0.0000E+00
    -15.747  0.0000E+00  0.0000E+00  0.0000E+00
    -15.646  0.0000E+00  0.0000E+00  0.0000E+00
    -15.545  0.0000E+00  0.0000E+00  0.0000E+00
    -15.443  0.0000E+00  0.0000E+00  0.0000E+00
    -15.342  0.0000E+00  0.0000E+00  0.0000E+00
    -15.241  0.0000E+00  0.0000E+00  0.0000E+00
    -15.140  0.0000E+00  0.0000E+00  0.0000E+00
    -15.039  0.0000E+00  0.0000E+00  0.0000E+00
    -14.938  0.0000E+00  0.0000E+00  0.0000E+00
    -14.837  0.0000E+00  0.0000E+00  0.0000E+00
    -14.735  0.0000E+00  0.0000E+00  0.0000E+00
    -14.634  0.0000E+00  0.0000E+00  0.0000E+00
    -14.533  0.0000E+00  0.0000E+00  0.0000E+00
    -14.432  0.0000E+00  0.0000E+00  0.0000E+00
    -14.331  0.4891E-03  0.1376E-04  0.2732E-05
    -14.230  0.4553E-02  0.2414E-02  0.1012E-03
    -14.129  0.1129E-02  0.4211E-02  0.1621E-03
    -14.027  0.5821E-03  0.5175E-02  0.3403E-03
    -13.926  0.1754E-03  0.1196E-02  0.3613E-03
    -13.825  0.2944E-02  0.8669E-02  0.8012E-03
    -13.724  0.1488E-02  0.2214E-02  0.2170E-03
    -13.623  0.0000E+00  0.0000E+00  0.0000E+00
    -13.522  0.0000E+00  0.0000E+00  0.0000E+00
    -13.421  0.0000E+00  0.0000E+00  0.0000E+00
    -13.319  0.0000E+00  0.0000E+00  0.0000E+00
    -13.218  0.0000E+00  0.0000E+00  0.0000E+00
    -13.117  0.0000E+00  0.0000E+00  0.0000E+00
    -13.016  0.0000E+00  0.0000E+00  0.0000E+00
    -12.915  0.0000E+00  0.0000E+00  0.0000E+00
    -12.814  0.0000E+00  0.0000E+00  0.0000E+00
    -12.713  0.0000E+00  0.0000E+00  0.0000E+00
    -12.611  0.0000E+00  0.0000E+00  0.0000E+00
    -12.510  0.0000E+00  0.0000E+00  0.0000E+00
    -12.409  0.0000E+00  0.0000E+00  0.0000E+00
    -12.308  0.0000E+00  0.0000E+00  0.0000E+00
    -12.207  0.0000E+00  0.0000E+00  0.0000E+00
    -12.106  0.0000E+00  0.0000E+00  0.0000E+00
    -12.005  0.0000E+00  0.0000E+00  0.0000E+00
    -11.903  0.0000E+00  0.0000E+00  0.0000E+00
    -11.802  0.0000E+00  0.0000E+00  0.0000E+00
    -11.701  0.0000E+00  0.0000E+00  0.0000E+00
    -11.600  0.0000E+00  0.0000E+00  0.0000E+00
    -11.499  0.0000E+00  0.0000E+00  0.0000E+00
    -11.398  0.0000E+00  0.0000E+00  0.0000E+00
    -11.297  0.0000E+00  0.0000E+00  0.0000E+00
    -11.195  0.0000E+00  0.0000E+00  0.0000E+00
    -11.094  0.0000E+00  0.0000E+00  0.0000E+00
    -10.993  0.0000E+00  0.0000E+00  0.0000E+00
    -10.892  0.0000E+00  0.0000E+00  0.0000E+00
    -10.791  0.0000E+00  0.0000E+00  0.0000E+00
    -10.690  0.0000E+00  0.0000E+00  0.0000E+00
    -10.588  0.0000E+00  0.0000E+00  0.0000E+00
    -10.487  0.0000E+00  0.0000E+00  0.0000E+00
    -10.386  0.0000E+00  0.0000E+00  0.0000E+00
    -10.285  0.0000E+00  0.0000E+00  0.0000E+00
    -10.184  0.0000E+00  0.0000E+00  0.0000E+00
    -10.083  0.0000E+00  0.0000E+00  0.0000E+00
     -9.982  0.0000E+00  0.0000E+00  0.0000E+00
     -9.880  0.0000E+00  0.0000E+00  0.0000E+00
     -9.779  0.0000E+00  0.0000E+00  0.0000E+00
     -9.678  0.0000E+00  0.0000E+00  0.0000E+00
     -9.577  0.0000E+00  0.0000E+00  0.0000E+00
     -9.476  0.0000E+00  0.0000E+00  0.0000E+00
     -9.375  0.0000E+00  0.0000E+00  0.0000E+00
     -9.274  0.0000E+00  0.0000E+00  0.0000E+00
     -9.172  0.0000E+00  0.0000E+00  0.0000E+00
     -9.071  0.0000E+00  0.0000E+00  0.0000E+00
     -8.970  0.0000E+00  0.0000E+00  0.0000E+00
     -8.869  0.0000E+00  0.0000E+00  0.0000E+00
     -8.768  0.0000E+00  0.0000E+00  0.0000E+00
     -8.667  0.0000E+00  0.0000E+00  0.0000E+00
     -8.566  0.0000E+00  0.0000E+00  0.0000E+00
     -8.464  0.0000E+00  0.0000E+00  0.0000E+00
     -8.363  0.0000E+00  0.0000E+00  0.0000E+00
     -8.262  0.0000E+00  0.0000E+00  0.0000E+00
     -8.161  0.5706E-19  0.1198E-04  0.6308E-07
     -8.060  0.0000E+00  0.0000E+00  0.0000E+00
     -7.959  0.1370E-05  0.3784E-02  0.1204E-05
     -7.858  0.0000E+00  0.0000E+00  0.0000E+00
     -7.756  0.1240E-08  0.1018E-04  0.3519E-08
     -7.655  0.9318E-05  0.8638E-01  0.5078E-04
     -7.554  0.2329E-14  0.2206E-10  0.6249E-14
     -7.453  0.4860E-04  0.3404E+00  0.9212E-04
     -7.352  0.8520E-20  0.2418E-15  0.3011E-21
     -7.251  0.4021E-04  0.7481E+01  0.4349E-04
     -7.150  0.1088E-04  0.2277E+02  0.3378E-04
     -7.048  0.1008E-04  0.4112E+00  0.3916E-04
     -6.947  0.0000E+00  0.0000E+00  0.0000E+00
     -6.846  0.8544E-04  0.2672E-01  0.4717E-04
     -6.745  0.0000E+00  0.0000E+00  0.0000E+00
     -6.644  0.0000E+00  0.0000E+00  0.0000E+00
     -6.543  0.1740E-08  0.1106E-06  0.3474E-09
     -6.442  0.2612E-04  0.1660E-02  0.5216E-05
     -6.340  0.0000E+00  0.0000E+00  0.0000E+00
     -6.239  0.0000E+00  0.0000E+00  0.0000E+00
     -6.138  0.0000E+00  0.0000E+00  0.0000E+00
     -6.037  0.0000E+00  0.0000E+00  0.0000E+00
     -5.936  0.0000E+00  0.0000E+00  0.0000E+00
     -5.835  0.0000E+00  0.0000E+00  0.0000E+00
     -5.734  0.0000E+00  0.0000E+00  0.0000E+00
     -5.632  0.0000E+00  0.0000E+00  0.0000E+00
     -5.531  0.0000E+00  0.0000E+00  0.0000E+00
     -5.430  0.0000E+00  0.0000E+00  0.0000E+00
     -5.329  0.0000E+00  0.0000E+00  0.0000E+00
     -5.228  0.0000E+00  0.0000E+00  0.0000E+00
     -5.127  0.0000E+00  0.0000E+00  0.0000E+00
     -5.025  0.0000E+00  0.0000E+00  0.0000E+00
     -4.924  0.0000E+00  0.0000E+00  0.0000E+00
     -4.823  0.0000E+00  0.0000E+00  0.0000E+00
     -4.722  0.0000E+00  0.0000E+00  0.0000E+00
     -4.621  0.0000E+00  0.0000E+00  0.0000E+00
     -4.520  0.0000E+00  0.0000E+00  0.0000E+00
     -4.419  0.0000E+00  0.0000E+00  0.0000E+00
     -4.317  0.0000E+00  0.0000E+00  0.0000E+00
     -4.216  0.0000E+00  0.0000E+00  0.0000E+00
     -4.115  0.0000E+00  0.0000E+00  0.0000E+00
     -4.014  0.0000E+00  0.0000E+00  0.0000E+00
     -3.913  0.0000E+00  0.0000E+00  0.0000E+00
     -3.812  0.0000E+00  0.0000E+00  0.0000E+00
     -3.711  0.0000E+00  0.0000E+00  0.0000E+00
     -3.609  0.0000E+00  0.0000E+00  0.0000E+00
     -3.508  0.0000E+00  0.0000E+00  0.0000E+00
     -3.407  0.0000E+00  0.0000E+00  0.0000E+00
     -3.306  0.1297E-07  0.4054E-02  0.3382E-04
     -3.205  0.2825E-04  0.2012E-01  0.1727E-02
     -3.104  0.9654E-05  0.2968E-02  0.1848E-02
     -3.003  0.6456E-17  0.6152E-04  0.5532E-04
     -2.901  0.0000E+00  0.0000E+00  0.0000E+00
     -2.800  0.0000E+00  0.0000E+00  0.0000E+00
     -2.699  0.3399E-15  0.1024E-13  0.1734E-15
     -2.598  0.6598E-03  0.3956E-01  0.1195E-02
     -2.497  0.6952E-03  0.1759E-01  0.3103E-02
     -2.396  0.9184E-03  0.5367E-02  0.3442E-02
     -2.295  0.3759E-02  0.2533E-01  0.3210E-02
     -2.193  0.2527E-02  0.1312E-01  0.4699E-02
     -2.092  0.3986E-02  0.8334E-03  0.1107E-02
     -1.991  0.2748E-01  0.4679E-01  0.5898E-02
     -1.890  0.4430E-02  0.2033E-01  0.9174E-03
     -1.789  0.7203E-03  0.6546E-01  0.2488E-02
     -1.688  0.1500E-02  0.5932E-01  0.4648E-02
     -1.587  0.8839E-02  0.1072E+00  0.1533E-01
     -1.485  0.5967E-03  0.5966E-01  0.6682E-02
     -1.384  0.6292E-02  0.6885E-01  0.1624E-01
     -1.283  0.9119E-02  0.8134E-01  0.2603E-01
     -1.182  0.2493E-02  0.7900E-01  0.1130E-01
     -1.081  0.1005E-02  0.7640E-01  0.1720E-01
     -0.980  0.4982E-03  0.2126E-01  0.5203E-02
     -0.879  0.4243E-03  0.7401E-02  0.4400E-02
     -0.777  0.9986E-03  0.1726E-01  0.3986E-02
     -0.676  0.4004E-08  0.4883E-04  0.1841E-03
     -0.575  0.3972E-04  0.9264E-03  0.3468E-03
     -0.474  0.2663E-03  0.2605E-02  0.8197E-03
     -0.373  0.1339E-03  0.4472E-02  0.8024E-03
     -0.272  0.0000E+00  0.0000E+00  0.0000E+00
     -0.170  0.6715E-18  0.1443E-10  0.3187E-10
     -0.069  0.3388E-05  0.4458E-03  0.6906E-03
      0.032  0.3785E-05  0.5768E-03  0.9666E-04
      0.133  0.0000E+00  0.0000E+00  0.0000E+00
      0.234  0.0000E+00  0.0000E+00  0.0000E+00
      0.335  0.0000E+00  0.0000E+00  0.0000E+00
      0.436  0.1247E-29  0.5761E-17  0.6818E-17
      0.538  0.1096E-17  0.5061E-05  0.5990E-05
      0.639  0.0000E+00  0.0000E+00  0.0000E+00
      0.740  0.0000E+00  0.0000E+00  0.0000E+00
      0.841  0.0000E+00  0.0000E+00  0.0000E+00
      0.942  0.0000E+00  0.0000E+00  0.0000E+00
      1.043  0.0000E+00  0.0000E+00  0.0000E+00
      1.144  0.0000E+00  0.0000E+00  0.0000E+00
      1.246  0.0000E+00  0.0000E+00  0.0000E+00
      1.347  0.0000E+00  0.0000E+00  0.0000E+00
      1.448  0.0000E+00  0.0000E+00  0.0000E+00
      1.549  0.0000E+00  0.0000E+00  0.0000E+00
      1.650  0.0000E+00  0.0000E+00  0.0000E+00
      1.751  0.0000E+00  0.0000E+00  0.0000E+00
      1.852  0.0000E+00  0.0000E+00  0.0000E+00
      1.954  0.0000E+00  0.0000E+00  0.0000E+00
      2.055  0.0000E+00  0.0000E+00  0.0000E+00
      2.156  0.0000E+00  0.0000E+00  0.0000E+00
      2.257  0.0000E+00  0.0000E+00  0.0000E+00
      2.358  0.0000E+00  0.0000E+00  0.0000E+00
      2.459  0.0000E+00  0.0000E+00  0.0000E+00
      2.560  0.0000E+00  0.0000E+00  0.0000E+00
      2.662  0.0000E+00  0.0000E+00  0.0000E+00
      2.763  0.1820E-09  0.3134E-06  0.7308E-03
      2.864  0.3393E-04  0.3596E-04  0.2100E-02
      2.965  0.3690E-03  0.5595E-04  0.1317E-02
      3.066  0.6535E-04  0.2775E-03  0.1467E-02
      3.167  0.1251E-02  0.2575E-02  0.4070E-02
      3.268  0.5547E-04  0.1607E-03  0.2696E-03
      3.370  0.7687E-03  0.5257E-02  0.2409E-02
      3.471  0.0000E+00  0.0000E+00  0.0000E+00
      3.572  0.7336E-04  0.3332E-03  0.2014E-03
      3.673  0.0000E+00  0.0000E+00  0.0000E+00
      3.774  0.0000E+00  0.0000E+00  0.0000E+00
      3.875  0.0000E+00  0.0000E+00  0.0000E+00
      3.976  0.0000E+00  0.0000E+00  0.0000E+00
      4.078  0.0000E+00  0.0000E+00  0.0000E+00
      4.179  0.0000E+00  0.0000E+00  0.0000E+00
      4.280  0.1655E-04  0.3488E-04  0.8975E-02
      4.381  0.1240E-02  0.1668E-02  0.1456E-01
      4.482  0.9808E-04  0.4039E-02  0.1236E-01
      4.583  0.1312E-02  0.3242E-02  0.9184E-02
      4.685  0.1758E-02  0.9558E-02  0.1141E-01
      4.786  0.1690E-01  0.8891E-02  0.8658E-02
      4.887  0.1137E-01  0.9965E-02  0.3937E-02
      4.988  0.0000E+00  0.0000E+00  0.0000E+00
      5.089  0.0000E+00  0.0000E+00  0.0000E+00
      5.190  0.0000E+00  0.0000E+00  0.0000E+00
      5.291  0.0000E+00  0.0000E+00  0.0000E+00
      5.393  0.0000E+00  0.0000E+00  0.0000E+00
      5.494  0.5672E-01  0.1390E-01  0.4581E-02
      5.595  0.7499E-17  0.1494E-08  0.2716E-07
      5.696  0.1305E-11  0.2034E-03  0.5258E-02
      5.797  0.1075E-11  0.6194E-04  0.4432E-03
      5.898  0.1958E-01  0.6333E-02  0.5733E-01
      5.999  0.6129E-01  0.1882E-01  0.1007E+00
      6.101  0.2325E-01  0.8523E-02  0.2315E-01
      6.202  0.6794E-01  0.1104E-01  0.3463E+00
      6.303  0.6136E-01  0.1305E-01  0.2870E+00
      6.404  0.3084E-01  0.6123E-02  0.3874E+00
      6.505  0.4257E-02  0.8479E-02  0.1775E+00
      6.606  0.3047E-01  0.2715E-01  0.3804E+00
      6.707  0.6348E-01  0.7268E-01  0.7877E+00
      6.809  0.1869E-01  0.2098E-01  0.3199E+00
      6.910  0.0000E+00  0.0000E+00  0.0000E+00
      7.011  0.0000E+00  0.0000E+00  0.0000E+00
      7.112  0.0000E+00  0.0000E+00  0.0000E+00
      7.213  0.0000E+00  0.0000E+00  0.0000E+00
      7.314  0.0000E+00  0.0000E+00  0.0000E+00
      7.415  0.0000E+00  0.0000E+00  0.0000E+00
      7.517  0.0000E+00  0.0000E+00  0.0000E+00
      7.618  0.0000E+00  0.0000E+00  0.0000E+00
      7.719  0.0000E+00  0.0000E+00  0.0000E+00
      7.820  0.0000E+00  0.0000E+00  0.0000E+00
      7.921  0.0000E+00  0.0000E+00  0.0000E+00
      8.022  0.0000E+00  0.0000E+00  0.0000E+00
      8.123  0.0000E+00  0.0000E+00  0.0000E+00
      8.12345457    -22.22024231  301      0.56281677      1.00000000
    -22.220  0.0000E+00  0.0000E+00  0.0000E+00
    -22.119  0.0000E+00  0.0000E+00  0.0000E+00
    -22.018  0.0000E+00  0.0000E+00  0.0000E+00
    -21.917  0.0000E+00  0.0000E+00  0.0000E+00
    -21.816  0.0000E+00  0.0000E+00  0.0000E+00
    -21.715  0.0000E+00  0.0000E+00  0.0000E+00
    -21.613  0.0000E+00  0.0000E+00  0.0000E+00
    -21.512  0.0000E+00  0.0000E+00  0.0000E+00
    -21.411  0.0000E+00  0.0000E+00  0.0000E+00
    -21.310  0.0000E+00  0.0000E+00  0.0000E+00
    -21.209  0.0000E+00  0.0000E+00  0.0000E+00
    -21.108  0.0000E+00  0.0000E+00  0.0000E+00
    -21.006  0.0000E+00  0.0000E+00  0.0000E+00
    -20.905  0.0000E+00  0.0000E+00  0.0000E+00
    -20.804  0.1755E+02  0.9899E-05  0.5289E-05
    -20.703  0.0000E+00  0.0000E+00  0.0000E+00
    -20.602  0.0000E+00  0.0000E+00  0.0000E+00
    -20.501  0.0000E+00  0.0000E+00  0.0000E+00
    -20.400  0.0000E+00  0.0000E+00  0.0000E+00
    -20.298  0.0000E+00  0.0000E+00  0.0000E+00
    -20.197  0.0000E+00  0.0000E+00  0.0000E+00
    -20.096  0.0000E+00  0.0000E+00  0.0000E+00
    -19.995  0.0000E+00  0.0000E+00  0.0000E+00
    -19.894  0.0000E+00  0.0000E+00  0.0000E+00
    -19.793  0.0000E+00  0.0000E+00  0.0000E+00
    -19.692  0.0000E+00  0.0000E+00  0.0000E+00
    -19.590  0.0000E+00  0.0000E+00  0.0000E+00
    -19.489  0.0000E+00  0.0000E+00  0.0000E+00
    -19.388  0.0000E+00  0.0000E+00  0.0000E+00
    -19.287  0.0000E+00  0.0000E+00  0.0000E+00
    -19.186  0.0000E+00  0.0000E+00  0.0000E+00
    -19.085  0.0000E+00  0.0000E+00  0.0000E+00
    -18.984  0.0000E+00  0.0000E+00  0.0000E+00
    -18.882  0.0000E+00  0.0000E+00  0.0000E+00
    -18.781  0.0000E+00  0.0000E+00  0.0000E+00
    -18.680  0.0000E+00  0.0000E+00  0.0000E+00
    -18.579  0.0000E+00  0.0000E+00  0.0000E+00
    -18.478  0.0000E+00  0.0000E+00  0.0000E+00
    -18.377  0.0000E+00  0.0000E+00  0.0000E+00
    -18.276  0.0000E+00  0.0000E+00  0.0000E+00
    -18.174  0.0000E+00  0.0000E+00  0.0000E+00
    -18.073  0.0000E+00  0.0000E+00  0.0000E+00
    -17.972  0.0000E+00  0.0000E+00  0.0000E+00
    -17.871  0.0000E+00  0.0000E+00  0.0000E+00
    -17.770  0.0000E+00  0.0000E+00  0.0000E+00
    -17.669  0.0000E+00  0.0000E+00  0.0000E+00
    -17.568  0.0000E+00  0.0000E+00  0.0000E+00
    -17.466  0.0000E+00  0.0000E+00  0.0000E+00
    -17.365  0.0000E+00  0.0000E+00  0.0000E+00
    -17.264  0.0000E+00  0.0000E+00  0.0000E+00
    -17.163  0.0000E+00  0.0000E+00  0.0000E+00
    -17.062  0.0000E+00  0.0000E+00  0.0000E+00
    -16.961  0.0000E+00  0.0000E+00  0.0000E+00
    -16.860  0.0000E+00  0.0000E+00  0.0000E+00
    -16.758  0.0000E+00  0.0000E+00  0.0000E+00
    -16.657  0.0000E+00  0.0000E+00  0.0000E+00
    -16.556  0.0000E+00  0.0000E+00  0.0000E+00
    -16.455  0.5764E-04  0.2110E-04  0.3442E-05
    -16.354  0.9114E-04  0.1045E-03  0.1455E-04
    -16.253  0.3333E-04  0.1927E-04  0.2062E-05
    -16.152  0.0000E+00  0.0000E+00  0.0000E+00
    -16.050  0.0000E+00  0.0000E+00  0.0000E+00
    -15.949  0.0000E+00  0.0000E+00  0.0000E+00
    -15.848  0.0000E+00  0.0000E+00  0.0000E+00
    -15.747  0.0000E+00  0.0000E+00  0.0000E+00
    -15.646  0.0000E+00  0.0000E+00  0.0000E+00
    -15.545  0.0000E+00  0.0000E+00  0.0000E+00
    -15.443  0.0000E+00  0.0000E+00  0.0000E+00
    -15.342  0.0000E+00  0.0000E+00  0.0000E+00
    -15.241  0.0000E+00  0.0000E+00  0.0000E+00
    -15.140  0.0000E+00  0.0000E+00  0.0000E+00
    -15.039  0.0000E+00  0.0000E+00  0.0000E+00
    -14.938  0.0000E+00  0.0000E+00  0.0000E+00
    -14.837  0.0000E+00  0.0000E+00  0.0000E+00
    -14.735  0.0000E+00  0.0000E+00  0.0000E+00
    -14.634  0.0000E+00  0.0000E+00  0.0000E+00
    -14.533  0.0000E+00  0.0000E+00  0.0000E+00
    -14.432  0.0000E+00  0.0000E+00  0.0000E+00
    -14.331  0.4891E-03  0.1376E-04  0.2732E-05
    -14.230  0.4553E-02  0.2414E-02  0.1012E-03
    -14.129  0.1129E-02  0.4211E-02  0.1621E-03
    -14.027  0.5821E-03  0.5175E-02  0.3403E-03
    -13.926  0.1754E-03  0.1196E-02  0.3613E-03
    -13.825  0.2944E-02  0.8669E-02  0.8012E-03
    -13.724  0.1488E-02  0.2214E-02  0.2170E-03
    -13.623  0.0000E+00  0.0000E+00  0.0000E+00
    -13.522  0.0000E+00  0.0000E+00  0.0000E+00
    -13.421  0.0000E+00  0.0000E+00  0.0000E+00
    -13.319  0.0000E+00  0.0000E+00  0.0000E+00
    -13.218  0.0000E+00  0.0000E+00  0.0000E+00