<?xml version="1.0" encoding="ISO-8859-1"?>
<modeling>
 <generator>
  <i name="program" type="string">vasp </i>
  <i name="version" type="string">5.4.4.18Apr17-6-g9f103f2a35  </i>
  <i name="subversion" type="string">(build Jun 22 2020 09:27:21) complex            parallel </i>
  <i name="platform" type="string">tx2_gcc-7.3_libsci-18.07_cray-fftw-3.3.8 </i>
  <i name="date" type="string">2021 09 22 </i>
  <i name="time" type="string">08:45:12 </i>
 </generator>
 <incar>
  <i type="string" name="SYSTEM"> CsPbBr3 cubic bulk</i>
  <i type="string" name="PREC">accurate</i>
  <i type="string" name="ALGO"> Normal   ! Electronic minimisation algo</i>
  <i type="logical" name="ADDGRID"> T  </i>
  <i type="int" name="NELM">   200</i>
  <i type="int" name="IBRION">     2</i>
  <i name="EDIFF">      0.00000100</i>
  <i name="EDIFFG">     -0.01000000</i>
  <i type="int" name="NSW">     0</i>
  <i type="int" name="ISIF">     3</i>
  <i type="int" name="ISYM">     2</i>
  <i name="ENCUT">    300.00000000</i>
  <i name="POTIM">      0.50000000</i>
  <i type="string" name="LREAL"> AUTO</i>
  <i type="int" name="ISMEAR">     0</i>
  <i name="SIGMA">      0.01000000</i>
  <i name="PSTRESS">      0.00000000</i>
  <i type="logical" name="LWAVE"> F  </i>
  <i type="logical" name="LCHARG"> T  </i>
  <i type="logical" name="LVHAR"> T  </i>
  <i type="int" name="LORBIT">    10</i>
  <i type="logical" name="LASPH"> T  </i>
  <v type="int" name="KPOINT_BSE">    -1     0     0     0</v>
  <i type="int" name="NELM">   200</i>
  <i type="string" name="METAGGA"> SCAN       ! PBE exchange-correlation</i>
  <i type="logical" name="LASPH"> T  </i>
 </incar>
 <structure name="primitive_cell" >
  <crystal>
   <varray name="basis" >
    <v>       5.86767600      -5.86767600       0.00000000 </v>
    <v>      -5.86767600      -5.86767600       0.00000000 </v>
    <v>       0.00000000       0.00000000     -11.73535200 </v>
   </varray>
   <i name="volume">    808.08745837 </i>
   <varray name="rec_basis" >
    <v>       0.08521261      -0.08521261       0.00000000 </v>
    <v>      -0.08521261      -0.08521261      -0.00000000 </v>
    <v>       0.00000000      -0.00000000      -0.08521261 </v>
   </varray>
  </crystal>
  <varray name="positions" >
   <v>       0.00000000      -0.50000000      -0.25000000 </v>
   <v>       0.42500000      -0.50000000      -0.25000000 </v>
   <v>      -0.21625000       0.28375000      -0.03750000 </v>
   <v>      -0.21625000       0.28375000      -0.46250000 </v>
   <v>      -0.28375000      -0.21625000      -0.03750000 </v>
   <v>      -0.28375000      -0.21625000      -0.46250000 </v>
   <v>       0.07500000       0.00000000      -0.25000000 </v>
   <v>       0.21625000      -0.28375000       0.03750000 </v>
   <v>       0.21625000      -0.28375000       0.46250000 </v>
   <v>       0.28375000       0.21625000       0.03750000 </v>
   <v>       0.28375000       0.21625000       0.46250000 </v>
   <v>       0.00000000       0.00000000       0.00000000 </v>
   <v>       0.00000000       0.00000000      -0.50000000 </v>
   <v>      -0.50000000      -0.50000000       0.00000000 </v>
   <v>      -0.50000000      -0.50000000      -0.50000000 </v>
   <v>       0.00000000      -0.50000000       0.25000000 </v>
   <v>      -0.50000000       0.00000000      -0.25000000 </v>
   <v>      -0.42500000      -0.50000000       0.25000000 </v>
   <v>      -0.07500000       0.00000000       0.25000000 </v>
   <v>      -0.50000000       0.00000000       0.25000000 </v>
  </varray>
 </structure>
 <varray name="primitive_index" >
  <v type="int" >        1 </v>
  <v type="int" >       29 </v>
  <v type="int" >       35 </v>
  <v type="int" >       36 </v>
  <v type="int" >       17 </v>
  <v type="int" >       18 </v>
  <v type="int" >       25 </v>
  <v type="int" >       33 </v>
  <v type="int" >       34 </v>
  <v type="int" >       21 </v>
  <v type="int" >       22 </v>
  <v type="int" >        9 </v>
  <v type="int" >       10 </v>
  <v type="int" >       11 </v>
  <v type="int" >       12 </v>
  <v type="int" >        2 </v>
  <v type="int" >        3 </v>
  <v type="int" >       28 </v>
  <v type="int" >       26 </v>
  <v type="int" >        4 </v>
 </varray>
 <kpoints>
  <generation param="Gamma">
   <v type="int" name="divisions">       2        2        2 </v>
   <v name="usershift">      0.00000000       0.00000000       0.00000000 </v>
   <v name="genvec1">      0.50000000       0.00000000       0.00000000 </v>
   <v name="genvec2">      0.00000000       0.50000000       0.00000000 </v>
   <v name="genvec3">      0.00000000       0.00000000       0.50000000 </v>
   <v name="shift">      0.00000000       0.00000000       0.00000000 </v>
  </generation>
  <varray name="kpointlist" >
   <v>       0.00000000       0.00000000       0.00000000 </v>
   <v>       0.50000000       0.00000000       0.00000000 </v>
   <v>       0.50000000       0.50000000       0.00000000 </v>
   <v>       0.00000000       0.00000000       0.50000000 </v>
   <v>       0.50000000       0.00000000       0.50000000 </v>
   <v>       0.50000000       0.50000000       0.50000000 </v>
  </varray>
  <varray name="weights" >
   <v>       0.12500000 </v>
   <v>       0.25000000 </v>
   <v>       0.12500000 </v>
   <v>       0.12500000 </v>
   <v>       0.25000000 </v>
   <v>       0.12500000 </v>
  </varray>
 </kpoints>
 <parameters>
  <separator name="general" >
   <i type="string" name="SYSTEM">CsPbBr3 cubic bulk</i>
   <i type="logical" name="LCOMPAT"> F  </i>
  </separator>
  <separator name="electronic" >
   <i type="string" name="PREC">accura</i>
   <i name="ENMAX">    300.00000000</i>
   <i name="ENAUG">    503.85200000</i>
   <i name="EDIFF">      0.00000100</i>
   <i type="int" name="IALGO">    38</i>
   <i type="int" name="IWAVPR">    10</i>
   <i type="int" name="NBANDS">   216</i>
   <i name="NELECT">    352.00000000</i>
   <i type="int" name="TURBO">     0</i>
   <i type="int" name="IRESTART">     0</i>
   <i type="int" name="NREBOOT">     0</i>
   <i type="int" name="NMIN">     0</i>
   <i name="EREF">      0.00000000</i>
   <separator name="electronic smearing" >
    <i type="int" name="ISMEAR">     0</i>
    <i name="SIGMA">      0.01000000</i>
    <i name="KSPACING">      0.50000000</i>
    <i type="logical" name="KGAMMA"> T  </i>
   </separator>
   <separator name="electronic projectors" >
    <i type="logical" name="LREAL"> T  </i>
    <v name="ROPT">     -0.00025000     -0.00025000     -0.00025000</v>
    <i type="int" name="LMAXPAW">  -100</i>
    <i type="int" name="LMAXMIX">     2</i>
    <i type="logical" name="NLSPLINE"> F  </i>
   </separator>
   <separator name="electronic startup" >
    <i type="int" name="ISTART">     0</i>
    <i type="int" name="ICHARG">     2</i>
    <i type="int" name="INIWAV">     1</i>
   </separator>
   <separator name="electronic spin" >
    <i type="int" name="ISPIN">     1</i>
    <i type="logical" name="LNONCOLLINEAR"> F  </i>
    <v name="MAGMOM">      1.00000000      1.00000000      1.00000000      1.00000000      1.00000000      1.00000000      1.00000000      1.00000000      1.00000000      1.00000000      1.00000000      1.00000000      1.00000000      1.00000000      1.00000000      1.00000000      1.00000000      1.00000000      1.00000000      1.00000000
      1.00000000      1.00000000      1.00000000      1.00000000      1.00000000      1.00000000      1.00000000      1.00000000      1.00000000      1.00000000      1.00000000      1.00000000      1.00000000      1.00000000      1.00000000      1.00000000      1.00000000      1.00000000      1.00000000      1.00000000
</v>
    <i name="NUPDOWN">     -1.00000000</i>
    <i type="logical" name="LSORBIT"> F  </i>
    <v name="SAXIS">      0.00000000      0.00000000      1.00000000</v>
    <i type="logical" name="LSPIRAL"> F  </i>
    <v name="QSPIRAL">      0.00000000      0.00000000      0.00000000</v>
    <i type="logical" name="LZEROZ"> F  </i>
   </separator>
   <separator name="electronic exchange-correlation" >
    <i type="logical" name="LASPH"> T  </i>
    <i type="logical" name="LMETAGGA"> F  </i>
   </separator>
   <separator name="electronic convergence" >
    <i type="int" name="NELM">   200</i>
    <i type="int" name="NELMDL">    -5</i>
    <i type="int" name="NELMIN">     2</i>
    <i name="ENINI">    300.00000000</i>
    <separator name="electronic convergence detail" >
     <i type="logical" name="LDIAG"> T  </i>
     <i type="logical" name="LSUBROT"> F  </i>
     <i name="WEIMIN">      0.00000000</i>
     <i name="EBREAK">      0.00000000</i>
     <i name="DEPER">      0.30000000</i>
     <i type="int" name="NRMM">     4</i>
     <i name="TIME">      0.40000000</i>
    </separator>
   </separator>
   <separator name="electronic mixer" >
    <i name="AMIX">      0.40000000</i>
    <i name="BMIX">      1.00000000</i>
    <i name="AMIN">      0.10000000</i>
    <i name="AMIX_MAG">      1.60000000</i>
    <i name="BMIX_MAG">      1.00000000</i>
    <separator name="electronic mixer details" >
     <i type="int" name="IMIX">     4</i>
     <i type="logical" name="MIXFIRST"> F  </i>
     <i type="int" name="MAXMIX">   -45</i>
     <i name="WC">    100.00000000</i>
     <i type="int" name="INIMIX">     1</i>
     <i type="int" name="MIXPRE">     1</i>
     <i type="int" name="MREMOVE">     5</i>
    </separator>
   </separator>
   <separator name="electronic dipolcorrection" >
    <i type="logical" name="LDIPOL"> F  </i>
    <i type="logical" name="LMONO"> F  </i>
    <i type="int" name="IDIPOL">     0</i>
    <i name="EPSILON">      1.00000000</i>
    <v name="DIPOL">   -100.00000000   -100.00000000   -100.00000000</v>
    <i name="EFIELD">      0.00000000</i>
   </separator>
  </separator>
  <separator name="grids" >
   <i type="int" name="NGX">    70</i>
   <i type="int" name="NGY">    70</i>
   <i type="int" name="NGZ">    70</i>
   <i type="int" name="NGXF">   140</i>
   <i type="int" name="NGYF">   140</i>
   <i type="int" name="NGZF">   140</i>
   <i type="logical" name="ADDGRID"> T  </i>
  </separator>
  <separator name="ionic" >
   <i type="int" name="NSW">     0</i>
   <i type="int" name="IBRION">    -1</i>
   <i type="int" name="MDALGO">     0</i>
   <i type="int" name="ISIF">     3</i>
   <i name="PSTRESS">      0.00000000</i>
   <i name="EDIFFG">     -0.01000000</i>
   <i type="int" name="NFREE">     1</i>
   <i name="POTIM">      0.50000000</i>
   <i name="SMASS">     -3.00000000</i>
   <i name="SCALEE">      1.00000000</i>
  </separator>
  <separator name="ionic md" >
   <i name="TEBEG">      0.00010000</i>
   <i name="TEEND">      0.00010000</i>
   <i type="int" name="NBLOCK">     1</i>
   <i type="int" name="KBLOCK">     1</i>
   <i type="int" name="NPACO">   256</i>
   <i name="APACO">     16.00000000</i>
  </separator>
  <separator name="symmetry" >
   <i type="int" name="ISYM">     2</i>
   <i name="SYMPREC">      0.00001000</i>
  </separator>
  <separator name="dos" >
   <i type="int" name="LORBIT">    10</i>
   <v name="RWIGS">     -1.00000000     -1.00000000     -1.00000000</v>
   <i type="int" name="NEDOS">   301</i>
   <i name="EMIN">     10.00000000</i>
   <i name="EMAX">    -10.00000000</i>
   <i name="EFERMI">      0.00000000</i>
  </separator>
  <separator name="writing" >
   <i type="int" name="NWRITE">     2</i>
   <i type="logical" name="LWAVE"> F  </i>
   <i type="logical" name="LDOWNSAMPLE"> F  </i>
   <i type="logical" name="LCHARG"> T  </i>
   <i type="logical" name="LPARD"> F  </i>
   <i type="logical" name="LVTOT"> F  </i>
   <i type="logical" name="LVHAR"> T  </i>
   <i type="logical" name="LELF"> F  </i>
   <i type="logical" name="LOPTICS"> F  </i>
   <v name="STM">      0.00000000      0.00000000      0.00000000      0.00000000      0.00000000      0.00000000      0.00000000</v>
  </separator>
  <separator name="performance" >
   <i type="int" name="NPAR">     8</i>
   <i type="int" name="NSIM">     4</i>
   <i type="int" name="NBLK">    -1</i>
   <i type="logical" name="LPLANE"> T  </i>
   <i type="logical" name="LSCALAPACK"> T  </i>
   <i type="logical" name="LSCAAWARE"> F  </i>
   <i type="logical" name="LSCALU"> F  </i>
   <i type="logical" name="LASYNC"> F  </i>
   <i type="logical" name="LORBITALREAL"> F  </i>
  </separator>
  <separator name="miscellaneous" >
   <i type="int" name="IDIOT">     3</i>
   <i type="int" name="ISPECIAL">     0</i>
   <i type="logical" name="LMUSIC"> F  </i>
   <v name="POMASS">    132.90000000    207.20000000     79.90400000</v>
   <v name="DARWINR">      0.00000000      0.00000000      0.00000000</v>
   <v name="DARWINV">      1.00000000      1.00000000      1.00000000</v>
   <i type="logical" name="LCORR"> T  </i>
  </separator>
  <i type="logical" name="GGA_COMPAT"> T  </i>
  <i type="logical" name="LBERRY"> F  </i>
  <i type="int" name="ICORELEVEL">     0</i>
  <i type="logical" name="LDAU"> F  </i>
  <i type="int" name="I_CONSTRAINED_M">     0</i>
  <separator name="electronic exchange-correlation" >
   <i type="string" name="GGA">--</i>
   <i type="int" name="VOSKOWN">     0</i>
   <i type="logical" name="LHFCALC"> F  </i>
   <i type="string" name="PRECFOCK"></i>
   <i type="logical" name="LSYMGRAD"> F  </i>
   <i type="logical" name="LHFONE"> F  </i>
   <i type="logical" name="LRHFCALC"> F  </i>
   <i type="logical" name="LTHOMAS"> F  </i>
   <i type="logical" name="LMODELHF"> F  </i>
   <i name="ENCUT4O">     -1.00000000</i>
   <i type="int" name="EXXOEP">     0</i>
   <i type="int" name="FOURORBIT">     0</i>
   <i name="AEXX">      0.00000000</i>
   <i name="HFALPHA">      0.00000000</i>
   <i name="MCALPHA">      0.00000000</i>
   <i name="ALDAX">      1.00000000</i>
   <i name="AGGAX">      1.00000000</i>
   <i name="ALDAC">      1.00000000</i>
   <i name="AGGAC">      1.00000000</i>
   <i type="int" name="NKREDX">     1</i>
   <i type="int" name="NKREDY">     1</i>
   <i type="int" name="NKREDZ">     1</i>
   <i type="logical" name="SHIFTRED"> F  </i>
   <i type="logical" name="ODDONLY"> F  </i>
   <i type="logical" name="EVENONLY"> F  </i>
   <i type="int" name="LMAXFOCK">     0</i>
   <i type="int" name="NMAXFOCKAE">     0</i>
   <i type="logical" name="LFOCKAEDFT"> F  </i>
   <i name="HFSCREEN">      0.00000000</i>
   <i name="HFSCREENC">      0.00000000</i>
   <i type="int" name="NBANDSGWLOW">     0</i>
  </separator>
  <separator name="vdW DFT" >
   <i type="logical" name="LUSE_VDW"> F  </i>
   <i name="Zab_VDW">     -0.84910000</i>
   <i name="PARAM1">      0.12340000</i>
   <i name="PARAM2">      1.00000000</i>
   <i name="PARAM3">      0.00000000</i>
  </separator>
  <separator name="model GW" >
   <i type="int" name="MODEL_GW">     0</i>
   <i name="MODEL_EPS0">     24.24262375</i>
   <i name="MODEL_ALPHA">      1.00000000</i>
  </separator>
  <separator name="linear response parameters" >
   <i type="logical" name="LEPSILON"> F  </i>
   <i type="logical" name="LRPA"> F  </i>
   <i type="logical" name="LNABLA"> F  </i>
   <i type="logical" name="LVEL"> F  </i>
   <i type="int" name="KINTER">     0</i>
   <i name="CSHIFT">      0.10000000</i>
   <i name="OMEGAMAX">     -1.00000000</i>
   <i name="DEG_THRESHOLD">      0.00200000</i>
   <i name="RTIME">     -0.10000000</i>
   <i name="WPLASMAI">      0.00000000</i>
   <v name="DFIELD">      0.00000000      0.00000000      0.00000000</v>
   <v name="WPLASMA">      0.00000000      0.00000000      0.00000000      0.00000000      0.00000000      0.00000000      0.00000000      0.00000000      0.00000000</v>
  </separator>
  <separator name="orbital magnetization" >
   <i type="logical" name="NUCIND"> F  </i>
   <v name="MAGPOS">      0.00000000      0.00000000      0.00000000</v>
   <i type="logical" name="LNICSALL"> T  </i>
   <i type="logical" name="ORBITALMAG"> F  </i>
   <i type="logical" name="LMAGBLOCH"> F  </i>
   <i type="logical" name="LCHIMAG"> F  </i>
   <i type="logical" name="LGAUGE"> T  </i>
   <i type="int" name="MAGATOM">     0</i>
   <v name="MAGDIPOL">      0.00000000      0.00000000      0.00000000</v>
   <v name="AVECCONST">      0.00000000      0.00000000      0.00000000</v>
  </separator>
  <separator name="response functions" >
   <i type="logical" name="LADDER"> F  </i>
   <i type="logical" name="LRPAFORCE"> F  </i>
   <i type="logical" name="LFXC"> F  </i>
   <i type="logical" name="LHARTREE"> T  </i>
   <i type="int" name="IBSE">     0</i>
   <v type="int" name="KPOINT">    -1     0     0     0</v>
   <i type="logical" name="LTCTE"> F  </i>
   <i type="logical" name="LTETE"> F  </i>
   <i type="logical" name="LTRIPLET"> F  </i>
   <i type="logical" name="LFXCEPS"> F  </i>
   <i type="logical" name="LFXHEG"> F  </i>
   <i type="int" name="NATURALO">     2</i>
   <i type="logical" name="L2ORDER"> F  </i>
   <i type="logical" name="LMP2LT"> F  </i>
   <i type="logical" name="LUSEW"> F  </i>
   <i name="ENCUTGW">     -2.00000000</i>
   <i name="ENCUTGWSOFT">     -2.00000000</i>
   <i name="ENCUTLF">     -1.00000000</i>
   <i type="int" name="LMAXMP2">    -1</i>
   <i name="SCISSOR">      0.00000000</i>
   <i type="int" name="NOMEGA">     0</i>
   <i type="int" name="NOMEGAR">     0</i>
   <i type="int" name="NBANDSGW">    -1</i>
   <i type="int" name="NBANDSO">    -1</i>
   <i type="int" name="NBANDSV">    -1</i>
   <i type="int" name="NELM">   200</i>
   <i type="int" name="NELMHF">     1</i>
   <i type="int" name="DIM">     3</i>
   <i type="int" name="ANTIRES">     0</i>
   <i name="OMEGAMAX">    -30.00000000</i>
   <i name="OMEGAMIN">    -30.00000000</i>
   <i name="OMEGATL">   -200.00000000</i>
   <i type="int" name="OMEGAGRID">   140</i>
   <i name="CSHIFT">     -0.10000000</i>
   <i type="logical" name="SELFENERGY"> F  </i>
   <i type="logical" name="LSPECTRAL"> F  </i>
   <i type="logical" name="LSPECTRALGW"> F  </i>
   <i type="logical" name="LSINGLES"> F  </i>
   <i type="logical" name="LFERMIGW"> F  </i>
   <i type="logical" name="ODDONLYGW"> F  </i>
   <i type="logical" name="EVENONLYGW"> F  </i>
   <i type="int" name="NKREDLFX">     1</i>
   <i type="int" name="NKREDLFY">     1</i>
   <i type="int" name="NKREDLFZ">     1</i>
   <i type="int" name="MAXMEM">  2800</i>
   <i type="int" name="TELESCOPE">     0</i>
   <i type="int" name="TAUPAR">     1</i>
   <i type="int" name="OMEGAPAR">    -1</i>
   <i name="LAMBDA">      1.00000000</i>
  </separator>
  <separator name="External order field" >
   <i name="OFIELD_KAPPA">      0.00000000</i>
   <v name="OFIELD_K">      0.00000000      0.00000000      0.00000000</v>
   <i name="OFIELD_Q6_NEAR">      0.00000000</i>
   <i name="OFIELD_Q6_FAR">      0.00000000</i>
   <i name="OFIELD_A">      0.00000000</i>
  </separator>
 </parameters>
 <atominfo>
  <atoms>      40 </atoms>
  <types>       3 </types>
  <array name="atoms" >
   <dimension dim="1">ion</dimension>
   <field type="string">element</field>
   <field type="int">atomtype</field>
   <set>
    <rc><c>Cs</c><c>   1</c></rc>
    <rc><c>Cs</c><c>   1</c></rc>
    <rc><c>Cs</c><c>   1</c></rc>
    <rc><c>Cs</c><c>   1</c></rc>
    <rc><c>Cs</c><c>   1</c></rc>
    <rc><c>Cs</c><c>   1</c></rc>
    <rc><c>Cs</c><c>   1</c></rc>
    <rc><c>Cs</c><c>   1</c></rc>
    <rc><c>Pb</c><c>   2</c></rc>
    <rc><c>Pb</c><c>   2</c></rc>
    <rc><c>Pb</c><c>   2</c></rc>
    <rc><c>Pb</c><c>   2</c></rc>
    <rc><c>Pb</c><c>   2</c></rc>
    <rc><c>Pb</c><c>   2</c></rc>
    <rc><c>Pb</c><c>   2</c></rc>
    <rc><c>Pb</c><c>   2</c></rc>
    <rc><c>Br</c><c>   3</c></rc>
    <rc><c>Br</c><c>   3</c></rc>
    <rc><c>Br</c><c>   3</c></rc>
    <rc><c>Br</c><c>   3</c></rc>
    <rc><c>Br</c><c>   3</c></rc>
    <rc><c>Br</c><c>   3</c></rc>
    <rc><c>Br</c><c>   3</c></rc>
    <rc><c>Br</c><c>   3</c></rc>
    <rc><c>Br</c><c>   3</c></rc>
    <rc><c>Br</c><c>   3</c></rc>
    <rc><c>Br</c><c>   3</c></rc>
    <rc><c>Br</c><c>   3</c></rc>
    <rc><c>Br</c><c>   3</c></rc>
    <rc><c>Br</c><c>   3</c></rc>
    <rc><c>Br</c><c>   3</c></rc>
    <rc><c>Br</c><c>   3</c></rc>
    <rc><c>Br</c><c>   3</c></rc>
    <rc><c>Br</c><c>   3</c></rc>
    <rc><c>Br</c><c>   3</c></rc>
    <rc><c>Br</c><c>   3</c></rc>
    <rc><c>Br</c><c>   3</c></rc>
    <rc><c>Br</c><c>   3</c></rc>
    <rc><c>Br</c><c>   3</c></rc>
    <rc><c>Br</c><c>   3</c></rc>
   </set>
  </array>
  <array name="atomtypes" >
   <dimension dim="1">type</dimension>
   <field type="int">atomspertype</field>
   <field type="string">element</field>
   <field>mass</field>
   <field>valence</field>
   <field type="string">pseudopotential</field>
   <set>
    <rc><c>   8</c><c>Cs</c><c>    132.90000000</c><c>      9.00000000</c><c>  PAW_PBE Cs_sv 08Apr2002               </c></rc>
    <rc><c>   8</c><c>Pb</c><c>    207.20000000</c><c>     14.00000000</c><c>  PAW_PBE Pb_d 06Sep2000                </c></rc>
    <rc><c>  24</c><c>Br</c><c>     79.90400000</c><c>      7.00000000</c><c>  PAW_PBE Br 06Sep2000                  </c></rc>
   </set>
  </array>
 </atominfo>
 <structure name="initialpos" >
  <crystal>
   <varray name="basis" >
    <v>      11.73535200       0.00000000       0.00000000 </v>
    <v>       0.00000000      11.73535200       0.00000000 </v>
    <v>       0.00000000       0.00000000      11.73535200 </v>
   </varray>
   <i name="volume">   1616.17491673 </i>
   <varray name="rec_basis" >
    <v>       0.08521261       0.00000000       0.00000000 </v>
    <v>       0.00000000       0.08521261       0.00000000 </v>
    <v>       0.00000000       0.00000000       0.08521261 </v>
   </varray>
  </crystal>
  <varray name="positions" >
   <v>       0.25000000       0.25000000       0.25000000 </v>
   <v>       0.25000000       0.25000000       0.75000000 </v>
   <v>       0.25000000       0.75000000       0.25000000 </v>
   <v>       0.25000000       0.75000000       0.75000000 </v>
   <v>       0.75000000       0.25000000       0.25000000 </v>
   <v>       0.75000000       0.25000000       0.75000000 </v>
   <v>       0.75000000       0.75000000       0.25000000 </v>
   <v>       0.75000000       0.75000000       0.75000000 </v>
   <v>       0.00000000       0.00000000       0.00000000 </v>
   <v>       0.00000000       0.00000000       0.50000000 </v>
   <v>       0.00000000       0.50000000       0.00000000 </v>
   <v>       0.00000000       0.50000000       0.50000000 </v>
   <v>       0.50000000       0.00000000       0.00000000 </v>
   <v>       0.50000000       0.00000000       0.50000000 </v>
   <v>       0.50000000       0.50000000       0.00000000 </v>
   <v>       0.50000000       0.50000000       0.50000000 </v>
   <v>       0.96625000       0.25000000       0.03750000 </v>
   <v>       0.96625000       0.25000000       0.46250000 </v>
   <v>       0.03375000       0.75000000       0.96250000 </v>
   <v>       0.03375000       0.75000000       0.53750000 </v>
   <v>       0.53375000       0.25000000       0.96250000 </v>
   <v>       0.53375000       0.25000000       0.53750000 </v>
   <v>       0.46625000       0.75000000       0.03750000 </v>
   <v>       0.46625000       0.75000000       0.46250000 </v>
   <v>       0.03750000       0.96250000       0.25000000 </v>
   <v>       0.96250000       0.03750000       0.75000000 </v>
   <v>       0.96250000       0.53750000       0.25000000 </v>
   <v>       0.03750000       0.46250000       0.75000000 </v>
   <v>       0.46250000       0.03750000       0.25000000 </v>
   <v>       0.53750000       0.96250000       0.75000000 </v>
   <v>       0.53750000       0.46250000       0.25000000 </v>
   <v>       0.46250000       0.53750000       0.75000000 </v>
   <v>       0.25000000       0.03375000       0.96250000 </v>
   <v>       0.25000000       0.03375000       0.53750000 </v>
   <v>       0.25000000       0.46625000       0.03750000 </v>
   <v>       0.25000000       0.46625000       0.46250000 </v>
   <v>       0.75000000       0.96625000       0.03750000 </v>
   <v>       0.75000000       0.96625000       0.46250000 </v>
   <v>       0.75000000       0.53375000       0.96250000 </v>
   <v>       0.75000000       0.53375000       0.53750000 </v>
  </varray>
 </structure>
 <calculation>
  <scstep>
   <time name="dav">   12.83   12.83</time>
   <time name="total">   14.29   14.31</time>
   <energy>
    <i name="alphaZ">    892.99476195 </i>
    <i name="ewald"> -18413.56722486 </i>
    <i name="hartreedc">  -7334.94491784 </i>
    <i name="XCdc">    924.04174188 </i>
    <i name="pawpsdc">  21633.96174531 </i>
    <i name="pawaedc"> -22707.92185401 </i>
    <i name="eentropy">     -0.00023764 </i>
    <i name="bandstr">   -231.62529900 </i>
    <i name="atom">  26580.56019858 </i>
    <i name="e_fr_energy">   1343.49891438 </i>
    <i name="e_wo_entrp">   1343.49915201 </i>
    <i name="e_0_energy">   1343.49903319 </i>
   </energy>
  </scstep>
  <scstep>
   <time name="dav">   14.26   14.27</time>
   <time name="total">   14.26   14.27</time>
   <energy>
    <i name="e_fr_energy">  -1128.14973627 </i>
    <i name="e_wo_entrp">  -1128.14973627 </i>
    <i name="e_0_energy">  -1128.14973627 </i>
   </energy>
  </scstep>
  <scstep>
   <time name="dav">   15.18   15.21</time>
   <time name="total">   15.18   15.21</time>
   <energy>
    <i name="e_fr_energy">  -1496.16183379 </i>
    <i name="e_wo_entrp">  -1496.16183379 </i>
    <i name="e_0_energy">  -1496.16183379 </i>
   </energy>
  </scstep>
  <scstep>
   <time name="dav">   14.07   14.07</time>
   <time name="total">   14.07   14.07</time>
   <energy>
    <i name="e_fr_energy">  -1508.44552463 </i>
    <i name="e_wo_entrp">  -1508.44552463 </i>
    <i name="e_0_energy">  -1508.44552463 </i>
   </energy>
  </scstep>
  <scstep>
   <time name="dav">   14.95   14.96</time>
   <time name="total">   17.74   17.75</time>
   <energy>
    <i name="e_fr_energy">  -1508.98654662 </i>
    <i name="e_wo_entrp">  -1508.98654662 </i>
    <i name="e_0_energy">  -1508.98654662 </i>
   </energy>
  </scstep>
  <scstep>
   <time name="dav">   14.76   14.76</time>
   <time name="total">   19.04   19.09</time>
   <energy>
    <i name="e_fr_energy">  -1429.49466385 </i>
    <i name="e_wo_entrp">  -1429.49466385 </i>
    <i name="e_0_energy">  -1429.49466385 </i>
   </energy>
  </scstep>
  <scstep>
   <time name="dav">   14.34   14.34</time>
   <time name="total">   18.63   18.67</time>
   <energy>
    <i name="e_fr_energy">  -1429.02923535 </i>
    <i name="e_wo_entrp">  -1429.02923535 </i>
    <i name="e_0_energy">  -1429.02923535 </i>
   </energy>
  </scstep>
  <scstep>
   <time name="dav">   14.01   14.01</time>
   <time name="total">   18.34   18.35</time>
   <energy>
    <i name="e_fr_energy">  -1429.22544450 </i>
    <i name="e_wo_entrp">  -1429.22544450 </i>
    <i name="e_0_energy">  -1429.22544450 </i>
   </energy>
  </scstep>
  <scstep>
   <time name="dav">   13.44   13.44</time>
   <time name="total">   17.76   17.77</time>
   <energy>
    <i name="e_fr_energy">  -1429.30762546 </i>
    <i name="e_wo_entrp">  -1429.30762546 </i>
    <i name="e_0_energy">  -1429.30762546 </i>
   </energy>
  </scstep>
  <scstep>
   <time name="dav">   15.80   15.80</time>
   <time name="total">   20.09   20.14</time>
   <energy>
    <i name="e_fr_energy">  -1429.30926462 </i>
    <i name="e_wo_entrp">  -1429.30926462 </i>
    <i name="e_0_energy">  -1429.30926462 </i>
   </energy>
  </scstep>
  <scstep>
   <time name="dav">   13.49   13.49</time>
   <time name="total">   17.82   17.83</time>
   <energy>
    <i name="e_fr_energy">  -1429.31220412 </i>
    <i name="e_wo_entrp">  -1429.31220412 </i>
    <i name="e_0_energy">  -1429.31220412 </i>
   </energy>
  </scstep>
  <scstep>
   <time name="dav">   13.62   13.62</time>
   <time name="total">   17.94   17.98</time>
   <energy>
    <i name="e_fr_energy">  -1429.31242350 </i>
    <i name="e_wo_entrp">  -1429.31242350 </i>
    <i name="e_0_energy">  -1429.31242350 </i>
   </energy>
  </scstep>
  <scstep>
   <time name="dav">   14.57   14.57</time>
   <time name="total">   18.86   18.91</time>
   <energy>
    <i name="e_fr_energy">  -1429.31245522 </i>
    <i name="e_wo_entrp">  -1429.31245522 </i>
    <i name="e_0_energy">  -1429.31245522 </i>
   </energy>
  </scstep>
  <scstep>
   <time name="dav">   12.68   12.68</time>
   <time name="total">   16.98   17.02</time>
   <energy>
    <i name="e_fr_energy">  -1429.31244589 </i>
    <i name="e_wo_entrp">  -1429.31244589 </i>
    <i name="e_0_energy">  -1429.31244589 </i>
   </energy>
  </scstep>
  <scstep>
   <time name="dav">   10.23   10.23</time>
   <time name="total">   14.54   14.58</time>
   <energy>
    <i name="e_fr_energy">  -1429.31246479 </i>
    <i name="e_wo_entrp">  -1429.31246479 </i>
    <i name="e_0_energy">  -1429.31246479 </i>
   </energy>
  </scstep>
  <scstep>
   <time name="dav">   10.08   10.08</time>
   <time name="total">   14.39   14.42</time>
   <energy>
    <i name="e_fr_energy">  -1429.31245565 </i>
    <i name="e_wo_entrp">  -1429.31245565 </i>
    <i name="e_0_energy">  -1429.31245565 </i>
   </energy>
  </scstep>
  <scstep>
   <time name="dav">   10.04   10.04</time>
   <time name="total">   14.33   14.39</time>
   <energy>
    <i name="e_fr_energy">  -1429.31245437 </i>
    <i name="e_wo_entrp">  -1429.31245437 </i>
    <i name="e_0_energy">  -1429.31245437 </i>
   </energy>
  </scstep>
  <scstep>
   <time name="dav">   10.03   10.03</time>
   <time name="total">   11.52   11.54</time>
   <energy>
    <i name="alphaZ">    892.99476195 </i>
    <i name="ewald"> -18413.56722486 </i>
    <i name="hartreedc">  -7364.72516034 </i>
    <i name="XCdc">    962.96963252 </i>
    <i name="pawpsdc">  23110.80695430 </i>
    <i name="pawaedc"> -24182.99086381 </i>
    <i name="eentropy">     -0.00000000 </i>
    <i name="bandstr">  -3015.36075199 </i>
    <i name="atom">  26580.56019858 </i>
    <i name="e_fr_energy">  -1429.31245366 </i>
    <i name="e_wo_entrp">  -1429.31245366 </i>
    <i name="e_0_energy">  -1429.31245366 </i>
   </energy>
  </scstep>
  <structure>
   <crystal>
    <varray name="basis" >
     <v>      11.73535200       0.00000000       0.00000000 </v>
     <v>       0.00000000      11.73535200       0.00000000 </v>
     <v>       0.00000000       0.00000000      11.73535200 </v>
    </varray>
    <i name="volume">   1616.17491673 </i>
    <varray name="rec_basis" >
     <v>       0.08521261       0.00000000       0.00000000 </v>
     <v>       0.00000000       0.08521261       0.00000000 </v>
     <v>       0.00000000       0.00000000       0.08521261 </v>
    </varray>
   </crystal>
   <varray name="positions" >
    <v>       0.25000000       0.25000000       0.25000000 </v>
    <v>       0.25000000       0.25000000       0.75000000 </v>
    <v>       0.25000000       0.75000000       0.25000000 </v>
    <v>       0.25000000       0.75000000       0.75000000 </v>
    <v>       0.75000000       0.25000000       0.25000000 </v>
    <v>       0.75000000       0.25000000       0.75000000 </v>
    <v>       0.75000000       0.75000000       0.25000000 </v>
    <v>       0.75000000       0.75000000       0.75000000 </v>
    <v>       0.00000000       0.00000000       0.00000000 </v>
    <v>       0.00000000       0.00000000       0.50000000 </v>
    <v>       0.00000000       0.50000000       0.00000000 </v>
    <v>       0.00000000       0.50000000       0.50000000 </v>
    <v>       0.50000000       0.00000000       0.00000000 </v>
    <v>       0.50000000       0.00000000       0.50000000 </v>
    <v>       0.50000000       0.50000000       0.00000000 </v>
    <v>       0.50000000       0.50000000       0.50000000 </v>
    <v>       0.96625000       0.25000000       0.03750000 </v>
    <v>       0.96625000       0.25000000       0.46250000 </v>
    <v>       0.03375000       0.75000000       0.96250000 </v>
    <v>       0.03375000       0.75000000       0.53750000 </v>
    <v>       0.53375000       0.25000000       0.96250000 </v>
    <v>       0.53375000       0.25000000       0.53750000 </v>
    <v>       0.46625000       0.75000000       0.03750000 </v>
    <v>       0.46625000       0.75000000       0.46250000 </v>
    <v>       0.03750000       0.96250000       0.25000000 </v>
    <v>       0.96250000       0.03750000       0.75000000 </v>
    <v>       0.96250000       0.53750000       0.25000000 </v>
    <v>       0.03750000       0.46250000       0.75000000 </v>
    <v>       0.46250000       0.03750000       0.25000000 </v>
    <v>       0.53750000       0.96250000       0.75000000 </v>
    <v>       0.53750000       0.46250000       0.25000000 </v>
    <v>       0.46250000       0.53750000       0.75000000 </v>
    <v>       0.25000000       0.03375000       0.96250000 </v>
    <v>       0.25000000       0.03375000       0.53750000 </v>
    <v>       0.25000000       0.46625000       0.03750000 </v>
    <v>       0.25000000       0.46625000       0.46250000 </v>
    <v>       0.75000000       0.96625000       0.03750000 </v>
    <v>       0.75000000       0.96625000       0.46250000 </v>
    <v>       0.75000000       0.53375000       0.96250000 </v>
    <v>       0.75000000       0.53375000       0.53750000 </v>
   </varray>
  </structure>
  <varray name="forces" >
   <v>      -0.15988043      -0.11484493       0.00000000 </v>
   <v>       0.15988043       0.11484493      -0.00000000 </v>
   <v>      -0.11484493      -0.15988043       0.00000000 </v>
   <v>       0.11484493       0.15988043       0.00000000 </v>
   <v>      -0.11484493      -0.15988043      -0.00000000 </v>
   <v>       0.11484493       0.15988043      -0.00000000 </v>
   <v>      -0.15988043      -0.11484493      -0.00000000 </v>
   <v>       0.15988043       0.11484493       0.00000000 </v>
   <v>       0.00000000      -0.00000000      -0.00000000 </v>
   <v>      -0.00000000      -0.00000000      -0.00000000 </v>
   <v>       0.00000000      -0.00000000       0.00000000 </v>
   <v>       0.00000000      -0.00000000       0.00000000 </v>
   <v>      -0.00000000      -0.00000000       0.00000000 </v>
   <v>       0.00000000      -0.00000000       0.00000000 </v>
   <v>      -0.00000000      -0.00000000      -0.00000000 </v>
   <v>       0.00000000      -0.00000000       0.00000000 </v>
   <v>       0.05265831       0.00064352      -0.05302339 </v>
   <v>       0.05265831       0.00064352       0.05302339 </v>
   <v>      -0.05265831      -0.00064352       0.05302339 </v>
   <v>      -0.05265831      -0.00064352      -0.05302339 </v>
   <v>      -0.05265831      -0.00064352       0.05302339 </v>
   <v>      -0.05265831      -0.00064352      -0.05302339 </v>
   <v>       0.05265831       0.00064352      -0.05302339 </v>
   <v>       0.05265831       0.00064352       0.05302339 </v>
   <v>      -0.06375869       0.10427904       0.00000000 </v>
   <v>       0.06375869      -0.10427904      -0.00000000 </v>
   <v>       0.10427904      -0.06375869       0.00000000 </v>
   <v>      -0.10427904       0.06375869      -0.00000000 </v>
   <v>       0.10427904      -0.06375869       0.00000000 </v>
   <v>      -0.10427904       0.06375869       0.00000000 </v>
   <v>      -0.06375869       0.10427904      -0.00000000 </v>
   <v>       0.06375869      -0.10427904       0.00000000 </v>
   <v>      -0.00064352      -0.05265831       0.05302339 </v>
   <v>      -0.00064352      -0.05265831      -0.05302339 </v>
   <v>       0.00064352       0.05265831      -0.05302339 </v>
   <v>       0.00064352       0.05265831       0.05302339 </v>
   <v>       0.00064352       0.05265831      -0.05302339 </v>
   <v>       0.00064352       0.05265831       0.05302339 </v>
   <v>      -0.00064352      -0.05265831       0.05302339 </v>
   <v>      -0.00064352      -0.05265831      -0.05302339 </v>
  </varray>
  <varray name="stress" >
   <v>      -0.13821792      -2.80054356       0.00000000 </v>
   <v>      -2.80054356      -0.13821792       0.00000000 </v>
   <v>       0.00000000       0.00000000      -1.19693664 </v>
  </varray>
  <energy>
   <i name="e_fr_energy">  -1429.31245366 </i>
   <i name="e_wo_entrp">  -1429.31245366 </i>
   <i name="e_0_energy">     -0.00000000 </i>
  </energy>
  <time name="totalsc">  345.35  346.20</time>
  <eigenvalues>
   <array>
    <dimension dim="1">band</dimension>
    <dimension dim="2">kpoint</dimension>
    <dimension dim="3">spin</dimension>
    <field>eigene</field>
    <field>occ</field>
    <set>
     <set comment="spin 1">
      <set comment="kpoint 1">
       <r>  -20.8410    1.0000 </r>
       <r>  -20.8396    1.0000 </r>
       <r>  -20.8395    1.0000 </r>
       <r>  -20.8395    1.0000 </r>
       <r>  -20.8383    1.0000 </r>
       <r>  -20.8383    1.0000 </r>
       <r>  -20.8382    1.0000 </r>
       <r>  -20.8366    1.0000 </r>
       <r>  -16.4669    1.0000 </r>
       <r>  -16.4669    1.0000 </r>
       <r>  -16.4648    1.0000 </r>
       <r>  -16.4648    1.0000 </r>
       <r>  -16.4644    1.0000 </r>
       <r>  -16.4395    1.0000 </r>
       <r>  -16.4395    1.0000 </r>
       <r>  -16.4368    1.0000 </r>
       <r>  -16.4089    1.0000 </r>
       <r>  -16.4089    1.0000 </r>
       <r>  -16.4088    1.0000 </r>
       <r>  -16.3758    1.0000 </r>
       <r>  -16.3754    1.0000 </r>
       <r>  -16.3751    1.0000 </r>
       <r>  -16.3751    1.0000 </r>
       <r>  -16.3744    1.0000 </r>
       <r>  -16.3043    1.0000 </r>
       <r>  -16.3042    1.0000 </r>
       <r>  -16.3042    1.0000 </r>
       <r>  -16.3040    1.0000 </r>
       <r>  -16.3036    1.0000 </r>
       <r>  -16.3035    1.0000 </r>
       <r>  -16.3035    1.0000 </r>
       <r>  -16.3029    1.0000 </r>
       <r>  -16.3011    1.0000 </r>
       <r>  -16.3009    1.0000 </r>
       <r>  -16.3009    1.0000 </r>
       <r>  -16.3009    1.0000 </r>
       <r>  -16.3007    1.0000 </r>
       <r>  -16.3005    1.0000 </r>
       <r>  -16.3004    1.0000 </r>
       <r>  -16.3004    1.0000 </r>
       <r>  -16.3003    1.0000 </r>
       <r>  -16.3003    1.0000 </r>
       <r>  -16.3003    1.0000 </r>
       <r>  -16.2996    1.0000 </r>
       <r>  -16.2996    1.0000 </r>
       <r>  -16.2995    1.0000 </r>
       <r>  -16.2993    1.0000 </r>
       <r>  -16.2993    1.0000 </r>
       <r>  -14.3508    1.0000 </r>
       <r>  -14.1719    1.0000 </r>
       <r>  -14.1696    1.0000 </r>
       <r>  -14.1696    1.0000 </r>
       <r>  -14.0351    1.0000 </r>
       <r>  -14.0283    1.0000 </r>
       <r>  -14.0283    1.0000 </r>
       <r>  -14.0264    1.0000 </r>
       <r>  -14.0252    1.0000 </r>
       <r>  -14.0241    1.0000 </r>
       <r>  -14.0241    1.0000 </r>
       <r>  -14.0156    1.0000 </r>
       <r>  -14.0111    1.0000 </r>
       <r>  -14.0111    1.0000 </r>
       <r>  -14.0058    1.0000 </r>
       <r>  -13.9977    1.0000 </r>
       <r>  -13.9556    1.0000 </r>
       <r>  -13.9556    1.0000 </r>
       <r>  -13.9511    1.0000 </r>
       <r>  -13.7468    1.0000 </r>
       <r>  -13.7403    1.0000 </r>
       <r>  -13.7370    1.0000 </r>
       <r>  -13.7332    1.0000 </r>
       <r>  -13.7332    1.0000 </r>
       <r>   -8.1828    1.0000 </r>
       <r>   -7.7052    1.0000 </r>
       <r>   -7.6846    1.0000 </r>
       <r>   -7.6846    1.0000 </r>
       <r>   -7.2729    1.0000 </r>
       <r>   -7.2729    1.0000 </r>
       <r>   -7.2700    1.0000 </r>
       <r>   -7.2691    1.0000 </r>
       <r>   -7.2619    1.0000 </r>
       <r>   -7.2546    1.0000 </r>
       <r>   -7.2497    1.0000 </r>
       <r>   -7.2397    1.0000 </r>
       <r>   -7.2397    1.0000 </r>
       <r>   -7.2370    1.0000 </r>
       <r>   -7.2370    1.0000 </r>
       <r>   -7.2322    1.0000 </r>
       <r>   -7.2265    1.0000 </r>
       <r>   -7.2263    1.0000 </r>
       <r>   -7.2231    1.0000 </r>
       <r>   -7.2225    1.0000 </r>
       <r>   -7.2225    1.0000 </r>
       <r>   -7.2206    1.0000 </r>
       <r>   -7.2206    1.0000 </r>
       <r>   -7.2193    1.0000 </r>
       <r>   -7.2153    1.0000 </r>
       <r>   -7.2117    1.0000 </r>
       <r>   -7.2117    1.0000 </r>
       <r>   -7.2038    1.0000 </r>
       <r>   -7.1124    1.0000 </r>
       <r>   -7.0787    1.0000 </r>
       <r>   -7.0787    1.0000 </r>
       <r>   -6.5157    1.0000 </r>
       <r>   -3.3339    1.0000 </r>
       <r>   -3.2991    1.0000 </r>
       <r>   -3.2590    1.0000 </r>
       <r>   -3.2496    1.0000 </r>
       <r>   -3.2220    1.0000 </r>
       <r>   -3.2220    1.0000 </r>
       <r>   -3.2148    1.0000 </r>
       <r>   -3.2148    1.0000 </r>
       <r>   -3.1410    1.0000 </r>
       <r>   -3.0537    1.0000 </r>
       <r>   -3.0537    1.0000 </r>
       <r>   -3.0453    1.0000 </r>
       <r>   -2.1318    1.0000 </r>
       <r>   -2.1288    1.0000 </r>
       <r>   -2.1288    1.0000 </r>
       <r>   -1.9386    1.0000 </r>
       <r>   -1.9386    1.0000 </r>
       <r>   -1.9077    1.0000 </r>
       <r>   -1.8912    1.0000 </r>
       <r>   -1.8881    1.0000 </r>
       <r>   -1.8613    1.0000 </r>
       <r>   -1.8157    1.0000 </r>
       <r>   -1.6929    1.0000 </r>
       <r>   -1.6929    1.0000 </r>
       <r>   -1.6318    1.0000 </r>
       <r>   -1.6157    1.0000 </r>
       <r>   -1.6157    1.0000 </r>
       <r>   -1.5380    1.0000 </r>
       <r>   -1.5380    1.0000 </r>
       <r>   -1.5082    1.0000 </r>
       <r>   -1.4868    1.0000 </r>
       <r>   -1.4605    1.0000 </r>
       <r>   -1.4456    1.0000 </r>
       <r>   -1.4456    1.0000 </r>
       <r>   -1.4319    1.0000 </r>
       <r>   -1.4158    1.0000 </r>
       <r>   -1.4101    1.0000 </r>
       <r>   -1.4101    1.0000 </r>
       <r>   -1.4070    1.0000 </r>
       <r>   -1.3994    1.0000 </r>
       <r>   -1.3803    1.0000 </r>
       <r>   -1.3803    1.0000 </r>
       <r>   -1.3587    1.0000 </r>
       <r>   -1.3556    1.0000 </r>
       <r>   -1.3556    1.0000 </r>
       <r>   -1.3512    1.0000 </r>
       <r>   -1.3089    1.0000 </r>
       <r>   -1.2942    1.0000 </r>
       <r>   -1.2942    1.0000 </r>
       <r>   -1.2798    1.0000 </r>
       <r>   -1.2600    1.0000 </r>
       <r>   -1.2503    1.0000 </r>
       <r>   -1.2503    1.0000 </r>
       <r>   -1.2388    1.0000 </r>
       <r>   -1.2287    1.0000 </r>
       <r>   -1.2287    1.0000 </r>
       <r>   -1.1677    1.0000 </r>
       <r>   -1.1397    1.0000 </r>
       <r>   -1.1196    1.0000 </r>
       <r>   -0.9678    1.0000 </r>
       <r>   -0.9659    1.0000 </r>
       <r>   -0.9659    1.0000 </r>
       <r>   -0.9569    1.0000 </r>
       <r>   -0.9525    1.0000 </r>
       <r>   -0.8680    1.0000 </r>
       <r>   -0.6851    1.0000 </r>
       <r>   -0.6499    1.0000 </r>
       <r>   -0.6499    1.0000 </r>
       <r>   -0.1332    1.0000 </r>
       <r>   -0.1332    1.0000 </r>
       <r>   -0.1192    1.0000 </r>
       <r>    0.4860    1.0000 </r>
       <r>    2.7535    0.0000 </r>
       <r>    2.7939    0.0000 </r>
       <r>    2.8155    0.0000 </r>
       <r>    3.1013    0.0000 </r>
       <r>    3.1515    0.0000 </r>
       <r>    3.1515    0.0000 </r>
       <r>    3.1738    0.0000 </r>
       <r>    3.1738    0.0000 </r>
       <r>    3.2381    0.0000 </r>
       <r>    3.5749    0.0000 </r>
       <r>    3.5749    0.0000 </r>
       <r>    3.5782    0.0000 </r>
       <r>    4.7733    0.0000 </r>
       <r>    5.6253    0.0000 </r>
       <r>    5.6263    0.0000 </r>
       <r>    5.6263    0.0000 </r>
       <r>    5.8789    0.0000 </r>
       <r>    5.8834    0.0000 </r>
       <r>    5.9585    0.0000 </r>
       <r>    6.0498    0.0000 </r>
       <r>    6.0498    0.0000 </r>
       <r>    6.0696    0.0000 </r>
       <r>    6.0696    0.0000 </r>
       <r>    6.1641    0.0000 </r>
       <r>    6.1876    0.0000 </r>
       <r>    6.2543    0.0000 </r>
       <r>    6.2543    0.0000 </r>
       <r>    6.2859    0.0000 </r>
       <r>    6.3507    0.0000 </r>
       <r>    6.4535    0.0000 </r>
       <r>    6.4748    0.0000 </r>
       <r>    6.5762    0.0000 </r>
       <r>    6.5896    0.0000 </r>
       <r>    6.6190    0.0000 </r>
       <r>    6.6502    0.0000 </r>
       <r>    6.6521    0.0000 </r>
       <r>    6.6616    0.0000 </r>
       <r>    6.6880    0.0000 </r>
       <r>    6.7025    0.0000 </r>
       <r>    6.7343    0.0000 </r>
      </set>
      <set comment="kpoint 2">
       <r>  -20.8404    1.0000 </r>
       <r>  -20.8404    1.0000 </r>
       <r>  -20.8387    1.0000 </r>
       <r>  -20.8387    1.0000 </r>
       <r>  -20.8387    1.0000 </r>
       <r>  -20.8387    1.0000 </r>
       <r>  -20.8376    1.0000 </r>
       <r>  -20.8376    1.0000 </r>
       <r>  -16.4651    1.0000 </r>
       <r>  -16.4651    1.0000 </r>
       <r>  -16.4492    1.0000 </r>
       <r>  -16.4492    1.0000 </r>
       <r>  -16.4466    1.0000 </r>
       <r>  -16.4466    1.0000 </r>
       <r>  -16.4379    1.0000 </r>
       <r>  -16.4379    1.0000 </r>
       <r>  -16.4081    1.0000 </r>
       <r>  -16.4081    1.0000 </r>
       <r>  -16.3968    1.0000 </r>
       <r>  -16.3968    1.0000 </r>
       <r>  -16.3961    1.0000 </r>
       <r>  -16.3961    1.0000 </r>
       <r>  -16.3750    1.0000 </r>
       <r>  -16.3750    1.0000 </r>
       <r>  -16.3044    1.0000 </r>
       <r>  -16.3044    1.0000 </r>
       <r>  -16.3038    1.0000 </r>
       <r>  -16.3038    1.0000 </r>
       <r>  -16.3036    1.0000 </r>
       <r>  -16.3036    1.0000 </r>
       <r>  -16.3032    1.0000 </r>
       <r>  -16.3032    1.0000 </r>
       <r>  -16.3011    1.0000 </r>
       <r>  -16.3011    1.0000 </r>
       <r>  -16.3007    1.0000 </r>
       <r>  -16.3007    1.0000 </r>
       <r>  -16.3005    1.0000 </r>
       <r>  -16.3005    1.0000 </r>
       <r>  -16.3004    1.0000 </r>
       <r>  -16.3004    1.0000 </r>
       <r>  -16.2999    1.0000 </r>
       <r>  -16.2999    1.0000 </r>
       <r>  -16.2999    1.0000 </r>
       <r>  -16.2999    1.0000 </r>
       <r>  -16.2997    1.0000 </r>
       <r>  -16.2997    1.0000 </r>
       <r>  -16.2995    1.0000 </r>
       <r>  -16.2995    1.0000 </r>
       <r>  -14.2929    1.0000 </r>
       <r>  -14.2929    1.0000 </r>
       <r>  -14.1275    1.0000 </r>
       <r>  -14.1275    1.0000 </r>
       <r>  -14.1261    1.0000 </r>
       <r>  -14.1261    1.0000 </r>
       <r>  -14.0275    1.0000 </r>
       <r>  -14.0275    1.0000 </r>
       <r>  -14.0211    1.0000 </r>
       <r>  -14.0211    1.0000 </r>
       <r>  -14.0173    1.0000 </r>
       <r>  -14.0173    1.0000 </r>
       <r>  -14.0081    1.0000 </r>
       <r>  -14.0081    1.0000 </r>
       <r>  -13.9836    1.0000 </r>
       <r>  -13.9836    1.0000 </r>
       <r>  -13.8493    1.0000 </r>
       <r>  -13.8493    1.0000 </r>
       <r>  -13.8161    1.0000 </r>
       <r>  -13.8161    1.0000 </r>
       <r>  -13.8125    1.0000 </r>
       <r>  -13.8125    1.0000 </r>
       <r>  -13.7391    1.0000 </r>
       <r>  -13.7391    1.0000 </r>
       <r>   -7.9534    1.0000 </r>
       <r>   -7.9534    1.0000 </r>
       <r>   -7.4768    1.0000 </r>
       <r>   -7.4768    1.0000 </r>
       <r>   -7.4466    1.0000 </r>
       <r>   -7.4466    1.0000 </r>
       <r>   -7.2572    1.0000 </r>
       <r>   -7.2572    1.0000 </r>
       <r>   -7.2568    1.0000 </r>
       <r>   -7.2568    1.0000 </r>
       <r>   -7.2460    1.0000 </r>
       <r>   -7.2460    1.0000 </r>
       <r>   -7.2432    1.0000 </r>
       <r>   -7.2432    1.0000 </r>
       <r>   -7.2407    1.0000 </r>
       <r>   -7.2407    1.0000 </r>
       <r>   -7.2318    1.0000 </r>
       <r>   -7.2318    1.0000 </r>
       <r>   -7.2304    1.0000 </r>
       <r>   -7.2304    1.0000 </r>
       <r>   -7.2224    1.0000 </r>
       <r>   -7.2224    1.0000 </r>
       <r>   -7.2185    1.0000 </r>
       <r>   -7.2185    1.0000 </r>
       <r>   -7.2120    1.0000 </r>
       <r>   -7.2120    1.0000 </r>
       <r>   -7.2013    1.0000 </r>
       <r>   -7.2013    1.0000 </r>
       <r>   -7.1804    1.0000 </r>
       <r>   -7.1804    1.0000 </r>
       <r>   -6.8619    1.0000 </r>
       <r>   -6.8619    1.0000 </r>
       <r>   -3.2582    1.0000 </r>
       <r>   -3.2582    1.0000 </r>
       <r>   -3.2513    1.0000 </r>
       <r>   -3.2513    1.0000 </r>
       <r>   -3.1344    1.0000 </r>
       <r>   -3.1344    1.0000 </r>
       <r>   -3.1292    1.0000 </r>
       <r>   -3.1292    1.0000 </r>
       <r>   -2.4948    1.0000 </r>
       <r>   -2.4948    1.0000 </r>
       <r>   -2.4735    1.0000 </r>
       <r>   -2.4735    1.0000 </r>
       <r>   -2.4367    1.0000 </r>
       <r>   -2.4367    1.0000 </r>
       <r>   -2.3155    1.0000 </r>
       <r>   -2.3155    1.0000 </r>
       <r>   -2.0473    1.0000 </r>
       <r>   -2.0473    1.0000 </r>
       <r>   -2.0228    1.0000 </r>
       <r>   -2.0228    1.0000 </r>
       <r>   -1.9995    1.0000 </r>
       <r>   -1.9995    1.0000 </r>
       <r>   -1.7928    1.0000 </r>
       <r>   -1.7928    1.0000 </r>
       <r>   -1.7859    1.0000 </r>
       <r>   -1.7859    1.0000 </r>
       <r>   -1.6151    1.0000 </r>
       <r>   -1.6151    1.0000 </r>
       <r>   -1.6012    1.0000 </r>
       <r>   -1.6012    1.0000 </r>
       <r>   -1.4936    1.0000 </r>
       <r>   -1.4936    1.0000 </r>
       <r>   -1.4520    1.0000 </r>
       <r>   -1.4520    1.0000 </r>
       <r>   -1.4113    1.0000 </r>
       <r>   -1.4113    1.0000 </r>
       <r>   -1.3930    1.0000 </r>
       <r>   -1.3930    1.0000 </r>
       <r>   -1.3719    1.0000 </r>
       <r>   -1.3719    1.0000 </r>
       <r>   -1.3386    1.0000 </r>
       <r>   -1.3386    1.0000 </r>
       <r>   -1.3163    1.0000 </r>
       <r>   -1.3163    1.0000 </r>
       <r>   -1.3111    1.0000 </r>
       <r>   -1.3111    1.0000 </r>
       <r>   -1.2981    1.0000 </r>
       <r>   -1.2981    1.0000 </r>
       <r>   -1.2945    1.0000 </r>
       <r>   -1.2945    1.0000 </r>
       <r>   -1.2768    1.0000 </r>
       <r>   -1.2768    1.0000 </r>
       <r>   -1.1967    1.0000 </r>
       <r>   -1.1967    1.0000 </r>
       <r>   -1.1930    1.0000 </r>
       <r>   -1.1930    1.0000 </r>
       <r>   -1.1071    1.0000 </r>
       <r>   -1.1071    1.0000 </r>
       <r>   -1.1032    1.0000 </r>
       <r>   -1.1032    1.0000 </r>
       <r>   -1.0667    1.0000 </r>
       <r>   -1.0667    1.0000 </r>
       <r>   -1.0317    1.0000 </r>
       <r>   -1.0317    1.0000 </r>
       <r>   -0.8449    1.0000 </r>
       <r>   -0.8449    1.0000 </r>
       <r>   -0.5586    1.0000 </r>
       <r>   -0.5586    1.0000 </r>
       <r>   -0.5290    1.0000 </r>
       <r>   -0.5290    1.0000 </r>
       <r>    0.0239    1.0000 </r>
       <r>    0.0239    1.0000 </r>
       <r>    2.9808    0.0000 </r>
       <r>    2.9808    0.0000 </r>
       <r>    2.9825    0.0000 </r>
       <r>    2.9825    0.0000 </r>
       <r>    3.3510    0.0000 </r>
       <r>    3.3510    0.0000 </r>
       <r>    3.3632    0.0000 </r>
       <r>    3.3632    0.0000 </r>
       <r>    4.2798    0.0000 </r>
       <r>    4.2798    0.0000 </r>
       <r>    4.6193    0.0000 </r>
       <r>    4.6193    0.0000 </r>
       <r>    4.6516    0.0000 </r>
       <r>    4.6516    0.0000 </r>
       <r>    4.9034    0.0000 </r>
       <r>    4.9034    0.0000 </r>
       <r>    5.4774    0.0000 </r>
       <r>    5.4774    0.0000 </r>
       <r>    5.8051    0.0000 </r>
       <r>    5.8051    0.0000 </r>
       <r>    5.8093    0.0000 </r>
       <r>    5.8093    0.0000 </r>
       <r>    6.1411    0.0000 </r>
       <r>    6.1411    0.0000 </r>
       <r>    6.1835    0.0000 </r>
       <r>    6.1835    0.0000 </r>
       <r>    6.1963    0.0000 </r>
       <r>    6.1963    0.0000 </r>
       <r>    6.2374    0.0000 </r>
       <r>    6.2374    0.0000 </r>
       <r>    6.5616    0.0000 </r>
       <r>    6.5618    0.0000 </r>
       <r>    6.6282    0.0000 </r>
       <r>    6.6321    0.0000 </r>
       <r>    6.6533    0.0000 </r>
       <r>    6.6538    0.0000 </r>
       <r>    6.7222    0.0000 </r>
       <r>    6.7228    0.0000 </r>
       <r>    6.7362    0.0000 </r>
       <r>    6.7442    0.0000 </r>
      </set>
      <set comment="kpoint 3">
       <r>  -20.8395    1.0000 </r>
       <r>  -20.8395    1.0000 </r>
       <r>  -20.8395    1.0000 </r>
       <r>  -20.8395    1.0000 </r>
       <r>  -20.8382    1.0000 </r>
       <r>  -20.8382    1.0000 </r>
       <r>  -20.8382    1.0000 </r>
       <r>  -20.8382    1.0000 </r>
       <r>  -16.4504    1.0000 </r>
       <r>  -16.4504    1.0000 </r>
       <r>  -16.4503    1.0000 </r>
       <r>  -16.4503    1.0000 </r>
       <r>  -16.4232    1.0000 </r>
       <r>  -16.4232    1.0000 </r>
       <r>  -16.4232    1.0000 </r>
       <r>  -16.4232    1.0000 </r>
       <r>  -16.4231    1.0000 </r>
       <r>  -16.4231    1.0000 </r>
       <r>  -16.4231    1.0000 </r>
       <r>  -16.4231    1.0000 </r>
       <r>  -16.3915    1.0000 </r>
       <r>  -16.3915    1.0000 </r>
       <r>  -16.3915    1.0000 </r>
       <r>  -16.3915    1.0000 </r>
       <r>  -16.3041    1.0000 </r>
       <r>  -16.3041    1.0000 </r>
       <r>  -16.3041    1.0000 </r>
       <r>  -16.3041    1.0000 </r>
       <r>  -16.3035    1.0000 </r>
       <r>  -16.3035    1.0000 </r>
       <r>  -16.3034    1.0000 </r>
       <r>  -16.3034    1.0000 </r>
       <r>  -16.3008    1.0000 </r>
       <r>  -16.3008    1.0000 </r>
       <r>  -16.3008    1.0000 </r>
       <r>  -16.3008    1.0000 </r>
       <r>  -16.3003    1.0000 </r>
       <r>  -16.3003    1.0000 </r>
       <r>  -16.3003    1.0000 </r>
       <r>  -16.3003    1.0000 </r>
       <r>  -16.3002    1.0000 </r>
       <r>  -16.3002    1.0000 </r>
       <r>  -16.3001    1.0000 </r>
       <r>  -16.3001    1.0000 </r>
       <r>  -16.2998    1.0000 </r>
       <r>  -16.2998    1.0000 </r>
       <r>  -16.2997    1.0000 </r>
       <r>  -16.2997    1.0000 </r>
       <r>  -14.2463    1.0000 </r>
       <r>  -14.2463    1.0000 </r>
       <r>  -14.2365    1.0000 </r>
       <r>  -14.2365    1.0000 </r>
       <r>  -14.1015    1.0000 </r>
       <r>  -14.1015    1.0000 </r>
       <r>  -14.0925    1.0000 </r>
       <r>  -14.0925    1.0000 </r>
       <r>  -14.0155    1.0000 </r>
       <r>  -14.0155    1.0000 </r>
       <r>  -14.0148    1.0000 </r>
       <r>  -14.0148    1.0000 </r>
       <r>  -13.8867    1.0000 </r>
       <r>  -13.8867    1.0000 </r>
       <r>  -13.8815    1.0000 </r>
       <r>  -13.8815    1.0000 </r>
       <r>  -13.8779    1.0000 </r>
       <r>  -13.8779    1.0000 </r>
       <r>  -13.8714    1.0000 </r>
       <r>  -13.8714    1.0000 </r>
       <r>  -13.7984    1.0000 </r>
       <r>  -13.7984    1.0000 </r>
       <r>  -13.7956    1.0000 </r>
       <r>  -13.7956    1.0000 </r>
       <r>   -7.7264    1.0000 </r>
       <r>   -7.7264    1.0000 </r>
       <r>   -7.7160    1.0000 </r>
       <r>   -7.7160    1.0000 </r>
       <r>   -7.2955    1.0000 </r>
       <r>   -7.2955    1.0000 </r>
       <r>   -7.2907    1.0000 </r>
       <r>   -7.2907    1.0000 </r>
       <r>   -7.2505    1.0000 </r>
       <r>   -7.2505    1.0000 </r>
       <r>   -7.2496    1.0000 </r>
       <r>   -7.2496    1.0000 </r>
       <r>   -7.2457    1.0000 </r>
       <r>   -7.2457    1.0000 </r>
       <r>   -7.2400    1.0000 </r>
       <r>   -7.2400    1.0000 </r>
       <r>   -7.2370    1.0000 </r>
       <r>   -7.2370    1.0000 </r>
       <r>   -7.2304    1.0000 </r>
       <r>   -7.2304    1.0000 </r>
       <r>   -7.2233    1.0000 </r>
       <r>   -7.2233    1.0000 </r>
       <r>   -7.2194    1.0000 </r>
       <r>   -7.2194    1.0000 </r>
       <r>   -7.2142    1.0000 </r>
       <r>   -7.2142    1.0000 </r>
       <r>   -7.2072    1.0000 </r>
       <r>   -7.2072    1.0000 </r>
       <r>   -7.1327    1.0000 </r>
       <r>   -7.1327    1.0000 </r>
       <r>   -7.1215    1.0000 </r>
       <r>   -7.1215    1.0000 </r>
       <r>   -3.1895    1.0000 </r>
       <r>   -3.1895    1.0000 </r>
       <r>   -3.1833    1.0000 </r>
       <r>   -3.1833    1.0000 </r>
       <r>   -2.6501    1.0000 </r>
       <r>   -2.6501    1.0000 </r>
       <r>   -2.6348    1.0000 </r>
       <r>   -2.6348    1.0000 </r>
       <r>   -2.5100    1.0000 </r>
       <r>   -2.5100    1.0000 </r>
       <r>   -2.4981    1.0000 </r>
       <r>   -2.4981    1.0000 </r>
       <r>   -2.3395    1.0000 </r>
       <r>   -2.3395    1.0000 </r>
       <r>   -2.3293    1.0000 </r>
       <r>   -2.3293    1.0000 </r>
       <r>   -2.2694    1.0000 </r>
       <r>   -2.2694    1.0000 </r>
       <r>   -2.2643    1.0000 </r>
       <r>   -2.2643    1.0000 </r>
       <r>   -2.0408    1.0000 </r>
       <r>   -2.0408    1.0000 </r>
       <r>   -1.9586    1.0000 </r>
       <r>   -1.9586    1.0000 </r>
       <r>   -1.7601    1.0000 </r>
       <r>   -1.7601    1.0000 </r>
       <r>   -1.6987    1.0000 </r>
       <r>   -1.6987    1.0000 </r>
       <r>   -1.6228    1.0000 </r>
       <r>   -1.6228    1.0000 </r>
       <r>   -1.6151    1.0000 </r>
       <r>   -1.6151    1.0000 </r>
       <r>   -1.5734    1.0000 </r>
       <r>   -1.5734    1.0000 </r>
       <r>   -1.5703    1.0000 </r>
       <r>   -1.5703    1.0000 </r>
       <r>   -1.4117    1.0000 </r>
       <r>   -1.4117    1.0000 </r>
       <r>   -1.3650    1.0000 </r>
       <r>   -1.3650    1.0000 </r>
       <r>   -1.3478    1.0000 </r>
       <r>   -1.3478    1.0000 </r>
       <r>   -1.3192    1.0000 </r>
       <r>   -1.3192    1.0000 </r>
       <r>   -1.2681    1.0000 </r>
       <r>   -1.2681    1.0000 </r>
       <r>   -1.2657    1.0000 </r>
       <r>   -1.2657    1.0000 </r>
       <r>   -1.2472    1.0000 </r>
       <r>   -1.2472    1.0000 </r>
       <r>   -1.2409    1.0000 </r>
       <r>   -1.2409    1.0000 </r>
       <r>   -1.1674    1.0000 </r>
       <r>   -1.1674    1.0000 </r>
       <r>   -1.1578    1.0000 </r>
       <r>   -1.1578    1.0000 </r>
       <r>   -1.1084    1.0000 </r>
       <r>   -1.1084    1.0000 </r>
       <r>   -1.0807    1.0000 </r>
       <r>   -1.0807    1.0000 </r>
       <r>   -1.0644    1.0000 </r>
       <r>   -1.0644    1.0000 </r>
       <r>   -1.0389    1.0000 </r>
       <r>   -1.0389    1.0000 </r>
       <r>   -0.8731    1.0000 </r>
       <r>   -0.8731    1.0000 </r>
       <r>   -0.8485    1.0000 </r>
       <r>   -0.8485    1.0000 </r>
       <r>   -0.4400    1.0000 </r>
       <r>   -0.4400    1.0000 </r>
       <r>   -0.4267    1.0000 </r>
       <r>   -0.4267    1.0000 </r>
       <r>    3.1583    0.0000 </r>
       <r>    3.1583    0.0000 </r>
       <r>    3.1807    0.0000 </r>
       <r>    3.1807    0.0000 </r>
       <r>    4.3325    0.0000 </r>
       <r>    4.3325    0.0000 </r>
       <r>    4.4322    0.0000 </r>
       <r>    4.4322    0.0000 </r>
       <r>    4.4753    0.0000 </r>
       <r>    4.4753    0.0000 </r>
       <r>    4.5219    0.0000 </r>
       <r>    4.5219    0.0000 </r>
       <r>    4.6829    0.0000 </r>
       <r>    4.6829    0.0000 </r>
       <r>    4.7488    0.0000 </r>
       <r>    4.7488    0.0000 </r>
       <r>    4.7702    0.0000 </r>
       <r>    4.7702    0.0000 </r>
       <r>    4.8577    0.0000 </r>
       <r>    4.8577    0.0000 </r>
       <r>    5.8787    0.0000 </r>
       <r>    5.8787    0.0000 </r>
       <r>    5.9409    0.0000 </r>
       <r>    5.9409    0.0000 </r>
       <r>    5.9518    0.0000 </r>
       <r>    5.9518    0.0000 </r>
       <r>    6.0488    0.0000 </r>
       <r>    6.0488    0.0000 </r>
       <r>    6.1921    0.0000 </r>
       <r>    6.1921    0.0000 </r>
       <r>    6.3982    0.0000 </r>
       <r>    6.3982    0.0000 </r>
       <r>    6.4601    0.0000 </r>
       <r>    6.4601    0.0000 </r>
       <r>    6.6882    0.0000 </r>
       <r>    6.6929    0.0000 </r>
       <r>    6.7006    0.0000 </r>
       <r>    6.7025    0.0000 </r>
       <r>    6.7140    0.0000 </r>
       <r>    6.7217    0.0000 </r>
      </set>
      <set comment="kpoint 4">
       <r>  -20.8404    1.0000 </r>
       <r>  -20.8404    1.0000 </r>
       <r>  -20.8387    1.0000 </r>
       <r>  -20.8387    1.0000 </r>
       <r>  -20.8387    1.0000 </r>
       <r>  -20.8387    1.0000 </r>
       <r>  -20.8375    1.0000 </r>
       <r>  -20.8375    1.0000 </r>
       <r>  -16.4671    1.0000 </r>
       <r>  -16.4671    1.0000 </r>
       <r>  -16.4484    1.0000 </r>
       <r>  -16.4484    1.0000 </r>
       <r>  -16.4484    1.0000 </r>
       <r>  -16.4484    1.0000 </r>
       <r>  -16.4369    1.0000 </r>
       <r>  -16.4369    1.0000 </r>
       <r>  -16.4063    1.0000 </r>
       <r>  -16.4063    1.0000 </r>
       <r>  -16.3959    1.0000 </r>
       <r>  -16.3959    1.0000 </r>
       <r>  -16.3959    1.0000 </r>
       <r>  -16.3959    1.0000 </r>
       <r>  -16.3757    1.0000 </r>
       <r>  -16.3757    1.0000 </r>
       <r>  -16.3043    1.0000 </r>
       <r>  -16.3043    1.0000 </r>
       <r>  -16.3037    1.0000 </r>
       <r>  -16.3037    1.0000 </r>
       <r>  -16.3037    1.0000 </r>
       <r>  -16.3037    1.0000 </r>
       <r>  -16.3034    1.0000 </r>
       <r>  -16.3034    1.0000 </r>
       <r>  -16.3011    1.0000 </r>
       <r>  -16.3011    1.0000 </r>
       <r>  -16.3007    1.0000 </r>
       <r>  -16.3007    1.0000 </r>
       <r>  -16.3004    1.0000 </r>
       <r>  -16.3004    1.0000 </r>
       <r>  -16.3004    1.0000 </r>
       <r>  -16.3004    1.0000 </r>
       <r>  -16.2999    1.0000 </r>
       <r>  -16.2999    1.0000 </r>
       <r>  -16.2998    1.0000 </r>
       <r>  -16.2998    1.0000 </r>
       <r>  -16.2998    1.0000 </r>
       <r>  -16.2998    1.0000 </r>
       <r>  -16.2996    1.0000 </r>
       <r>  -16.2996    1.0000 </r>
       <r>  -14.2925    1.0000 </r>
       <r>  -14.2925    1.0000 </r>
       <r>  -14.1243    1.0000 </r>
       <r>  -14.1243    1.0000 </r>
       <r>  -14.1243    1.0000 </r>
       <r>  -14.1243    1.0000 </r>
       <r>  -14.0288    1.0000 </r>
       <r>  -14.0288    1.0000 </r>
       <r>  -14.0234    1.0000 </r>
       <r>  -14.0234    1.0000 </r>
       <r>  -14.0234    1.0000 </r>
       <r>  -14.0234    1.0000 </r>
       <r>  -14.0135    1.0000 </r>
       <r>  -14.0135    1.0000 </r>
       <r>  -13.9765    1.0000 </r>
       <r>  -13.9765    1.0000 </r>
       <r>  -13.8511    1.0000 </r>
       <r>  -13.8511    1.0000 </r>
       <r>  -13.8124    1.0000 </r>
       <r>  -13.8124    1.0000 </r>
       <r>  -13.8124    1.0000 </r>
       <r>  -13.8124    1.0000 </r>
       <r>  -13.7387    1.0000 </r>
       <r>  -13.7387    1.0000 </r>
       <r>   -7.9612    1.0000 </r>
       <r>   -7.9612    1.0000 </r>
       <r>   -7.4642    1.0000 </r>
       <r>   -7.4642    1.0000 </r>
       <r>   -7.4642    1.0000 </r>
       <r>   -7.4642    1.0000 </r>
       <r>   -7.2572    1.0000 </r>
       <r>   -7.2572    1.0000 </r>
       <r>   -7.2529    1.0000 </r>
       <r>   -7.2529    1.0000 </r>
       <r>   -7.2469    1.0000 </r>
       <r>   -7.2469    1.0000 </r>
       <r>   -7.2333    1.0000 </r>
       <r>   -7.2333    1.0000 </r>
       <r>   -7.2333    1.0000 </r>
       <r>   -7.2333    1.0000 </r>
       <r>   -7.2282    1.0000 </r>
       <r>   -7.2282    1.0000 </r>
       <r>   -7.2237    1.0000 </r>
       <r>   -7.2237    1.0000 </r>
       <r>   -7.2237    1.0000 </r>
       <r>   -7.2237    1.0000 </r>
       <r>   -7.2209    1.0000 </r>
       <r>   -7.2209    1.0000 </r>
       <r>   -7.2203    1.0000 </r>
       <r>   -7.2203    1.0000 </r>
       <r>   -7.1911    1.0000 </r>
       <r>   -7.1911    1.0000 </r>
       <r>   -7.1911    1.0000 </r>
       <r>   -7.1911    1.0000 </r>
       <r>   -6.8614    1.0000 </r>
       <r>   -6.8614    1.0000 </r>
       <r>   -3.2940    1.0000 </r>
       <r>   -3.2940    1.0000 </r>
       <r>   -3.2130    1.0000 </r>
       <r>   -3.2130    1.0000 </r>
       <r>   -3.1537    1.0000 </r>
       <r>   -3.1537    1.0000 </r>
       <r>   -3.1537    1.0000 </r>
       <r>   -3.1537    1.0000 </r>
       <r>   -2.4780    1.0000 </r>
       <r>   -2.4780    1.0000 </r>
       <r>   -2.4596    1.0000 </r>
       <r>   -2.4596    1.0000 </r>
       <r>   -2.4596    1.0000 </r>
       <r>   -2.4596    1.0000 </r>
       <r>   -2.3224    1.0000 </r>
       <r>   -2.3224    1.0000 </r>
       <r>   -2.0166    1.0000 </r>
       <r>   -2.0166    1.0000 </r>
       <r>   -2.0019    1.0000 </r>
       <r>   -2.0019    1.0000 </r>
       <r>   -2.0019    1.0000 </r>
       <r>   -2.0019    1.0000 </r>
       <r>   -1.8291    1.0000 </r>
       <r>   -1.8291    1.0000 </r>
       <r>   -1.7695    1.0000 </r>
       <r>   -1.7695    1.0000 </r>
       <r>   -1.6188    1.0000 </r>
       <r>   -1.6188    1.0000 </r>
       <r>   -1.6188    1.0000 </r>
       <r>   -1.6188    1.0000 </r>
       <r>   -1.5071    1.0000 </r>
       <r>   -1.5071    1.0000 </r>
       <r>   -1.4729    1.0000 </r>
       <r>   -1.4729    1.0000 </r>
       <r>   -1.4086    1.0000 </r>
       <r>   -1.4086    1.0000 </r>
       <r>   -1.4086    1.0000 </r>
       <r>   -1.4086    1.0000 </r>
       <r>   -1.3250    1.0000 </r>
       <r>   -1.3250    1.0000 </r>
       <r>   -1.3250    1.0000 </r>
       <r>   -1.3250    1.0000 </r>
       <r>   -1.3201    1.0000 </r>
       <r>   -1.3201    1.0000 </r>
       <r>   -1.3129    1.0000 </r>
       <r>   -1.3129    1.0000 </r>
       <r>   -1.2875    1.0000 </r>
       <r>   -1.2875    1.0000 </r>
       <r>   -1.2875    1.0000 </r>
       <r>   -1.2875    1.0000 </r>
       <r>   -1.2865    1.0000 </r>
       <r>   -1.2865    1.0000 </r>
       <r>   -1.2270    1.0000 </r>
       <r>   -1.2270    1.0000 </r>
       <r>   -1.1710    1.0000 </r>
       <r>   -1.1710    1.0000 </r>
       <r>   -1.0786    1.0000 </r>
       <r>   -1.0786    1.0000 </r>
       <r>   -1.0786    1.0000 </r>
       <r>   -1.0786    1.0000 </r>
       <r>   -1.0774    1.0000 </r>
       <r>   -1.0774    1.0000 </r>
       <r>   -1.0399    1.0000 </r>
       <r>   -1.0399    1.0000 </r>
       <r>   -0.8628    1.0000 </r>
       <r>   -0.8628    1.0000 </r>
       <r>   -0.5360    1.0000 </r>
       <r>   -0.5360    1.0000 </r>
       <r>   -0.5360    1.0000 </r>
       <r>   -0.5360    1.0000 </r>
       <r>    0.0354    1.0000 </r>
       <r>    0.0354    1.0000 </r>
       <r>    2.9416    0.0000 </r>
       <r>    2.9416    0.0000 </r>
       <r>    3.0194    0.0000 </r>
       <r>    3.0194    0.0000 </r>
       <r>    3.3458    0.0000 </r>
       <r>    3.3458    0.0000 </r>
       <r>    3.3458    0.0000 </r>
       <r>    3.3458    0.0000 </r>
       <r>    4.2622    0.0000 </r>
       <r>    4.2622    0.0000 </r>
       <r>    4.6190    0.0000 </r>
       <r>    4.6190    0.0000 </r>
       <r>    4.6190    0.0000 </r>
       <r>    4.6190    0.0000 </r>
       <r>    4.8662    0.0000 </r>
       <r>    4.8662    0.0000 </r>
       <r>    5.4775    0.0000 </r>
       <r>    5.4775    0.0000 </r>
       <r>    5.8613    0.0000 </r>
       <r>    5.8613    0.0000 </r>
       <r>    5.8613    0.0000 </r>
       <r>    5.8613    0.0000 </r>
       <r>    6.0814    0.0000 </r>
       <r>    6.0814    0.0000 </r>
       <r>    6.2062    0.0000 </r>
       <r>    6.2062    0.0000 </r>
       <r>    6.2470    0.0000 </r>
       <r>    6.2470    0.0000 </r>
       <r>    6.2896    0.0000 </r>
       <r>    6.2896    0.0000 </r>
       <r>    6.6036    0.0000 </r>
       <r>    6.6036    0.0000 </r>
       <r>    6.6038    0.0000 </r>
       <r>    6.6041    0.0000 </r>
       <r>    6.6699    0.0000 </r>
       <r>    6.6943    0.0000 </r>
       <r>    6.7258    0.0000 </r>
       <r>    6.7261    0.0000 </r>
       <r>    6.7295    0.0000 </r>
       <r>    6.7412    0.0000 </r>
      </set>
      <set comment="kpoint 5">
       <r>  -20.8395    1.0000 </r>
       <r>  -20.8395    1.0000 </r>
       <r>  -20.8395    1.0000 </r>
       <r>  -20.8395    1.0000 </r>
       <r>  -20.8382    1.0000 </r>
       <r>  -20.8382    1.0000 </r>
       <r>  -20.8382    1.0000 </r>
       <r>  -20.8382    1.0000 </r>
       <r>  -16.4527    1.0000 </r>
       <r>  -16.4527    1.0000 </r>
       <r>  -16.4527    1.0000 </r>
       <r>  -16.4527    1.0000 </r>
       <r>  -16.4218    1.0000 </r>
       <r>  -16.4218    1.0000 </r>
       <r>  -16.4218    1.0000 </r>
       <r>  -16.4218    1.0000 </r>
       <r>  -16.4217    1.0000 </r>
       <r>  -16.4217    1.0000 </r>
       <r>  -16.4217    1.0000 </r>
       <r>  -16.4217    1.0000 </r>
       <r>  -16.3919    1.0000 </r>
       <r>  -16.3919    1.0000 </r>
       <r>  -16.3919    1.0000 </r>
       <r>  -16.3919    1.0000 </r>
       <r>  -16.3040    1.0000 </r>
       <r>  -16.3040    1.0000 </r>
       <r>  -16.3040    1.0000 </r>
       <r>  -16.3040    1.0000 </r>
       <r>  -16.3035    1.0000 </r>
       <r>  -16.3035    1.0000 </r>
       <r>  -16.3035    1.0000 </r>
       <r>  -16.3035    1.0000 </r>
       <r>  -16.3007    1.0000 </r>
       <r>  -16.3007    1.0000 </r>
       <r>  -16.3007    1.0000 </r>
       <r>  -16.3007    1.0000 </r>
       <r>  -16.3004    1.0000 </r>
       <r>  -16.3004    1.0000 </r>
       <r>  -16.3004    1.0000 </r>
       <r>  -16.3004    1.0000 </r>
       <r>  -16.3001    1.0000 </r>
       <r>  -16.3001    1.0000 </r>
       <r>  -16.3001    1.0000 </r>
       <r>  -16.3001    1.0000 </r>
       <r>  -16.2997    1.0000 </r>
       <r>  -16.2997    1.0000 </r>
       <r>  -16.2997    1.0000 </r>
       <r>  -16.2997    1.0000 </r>
       <r>  -14.2406    1.0000 </r>
       <r>  -14.2406    1.0000 </r>
       <r>  -14.2406    1.0000 </r>
       <r>  -14.2406    1.0000 </r>
       <r>  -14.0950    1.0000 </r>
       <r>  -14.0950    1.0000 </r>
       <r>  -14.0950    1.0000 </r>
       <r>  -14.0950    1.0000 </r>
       <r>  -14.0212    1.0000 </r>
       <r>  -14.0212    1.0000 </r>
       <r>  -14.0212    1.0000 </r>
       <r>  -14.0212    1.0000 </r>
       <r>  -13.8828    1.0000 </r>
       <r>  -13.8828    1.0000 </r>
       <r>  -13.8828    1.0000 </r>
       <r>  -13.8828    1.0000 </r>
       <r>  -13.8726    1.0000 </r>
       <r>  -13.8726    1.0000 </r>
       <r>  -13.8726    1.0000 </r>
       <r>  -13.8726    1.0000 </r>
       <r>  -13.7970    1.0000 </r>
       <r>  -13.7970    1.0000 </r>
       <r>  -13.7970    1.0000 </r>
       <r>  -13.7970    1.0000 </r>
       <r>   -7.7312    1.0000 </r>
       <r>   -7.7312    1.0000 </r>
       <r>   -7.7312    1.0000 </r>
       <r>   -7.7312    1.0000 </r>
       <r>   -7.2772    1.0000 </r>
       <r>   -7.2772    1.0000 </r>
       <r>   -7.2772    1.0000 </r>
       <r>   -7.2772    1.0000 </r>
       <r>   -7.2470    1.0000 </r>
       <r>   -7.2470    1.0000 </r>
       <r>   -7.2470    1.0000 </r>
       <r>   -7.2470    1.0000 </r>
       <r>   -7.2429    1.0000 </r>
       <r>   -7.2429    1.0000 </r>
       <r>   -7.2429    1.0000 </r>
       <r>   -7.2429    1.0000 </r>
       <r>   -7.2279    1.0000 </r>
       <r>   -7.2279    1.0000 </r>
       <r>   -7.2279    1.0000 </r>
       <r>   -7.2279    1.0000 </r>
       <r>   -7.2200    1.0000 </r>
       <r>   -7.2200    1.0000 </r>
       <r>   -7.2200    1.0000 </r>
       <r>   -7.2200    1.0000 </r>
       <r>   -7.2123    1.0000 </r>
       <r>   -7.2123    1.0000 </r>
       <r>   -7.2123    1.0000 </r>
       <r>   -7.2123    1.0000 </r>
       <r>   -7.1385    1.0000 </r>
       <r>   -7.1385    1.0000 </r>
       <r>   -7.1385    1.0000 </r>
       <r>   -7.1385    1.0000 </r>
       <r>   -3.2051    1.0000 </r>
       <r>   -3.2051    1.0000 </r>
       <r>   -3.2051    1.0000 </r>
       <r>   -3.2051    1.0000 </r>
       <r>   -2.6376    1.0000 </r>
       <r>   -2.6376    1.0000 </r>
       <r>   -2.6376    1.0000 </r>
       <r>   -2.6376    1.0000 </r>
       <r>   -2.5146    1.0000 </r>
       <r>   -2.5146    1.0000 </r>
       <r>   -2.5146    1.0000 </r>
       <r>   -2.5146    1.0000 </r>
       <r>   -2.3209    1.0000 </r>
       <r>   -2.3209    1.0000 </r>
       <r>   -2.3209    1.0000 </r>
       <r>   -2.3209    1.0000 </r>
       <r>   -2.2719    1.0000 </r>
       <r>   -2.2719    1.0000 </r>
       <r>   -2.2719    1.0000 </r>
       <r>   -2.2719    1.0000 </r>
       <r>   -1.9974    1.0000 </r>
       <r>   -1.9974    1.0000 </r>
       <r>   -1.9974    1.0000 </r>
       <r>   -1.9974    1.0000 </r>
       <r>   -1.7421    1.0000 </r>
       <r>   -1.7421    1.0000 </r>
       <r>   -1.7421    1.0000 </r>
       <r>   -1.7421    1.0000 </r>
       <r>   -1.6167    1.0000 </r>
       <r>   -1.6167    1.0000 </r>
       <r>   -1.6167    1.0000 </r>
       <r>   -1.6167    1.0000 </r>
       <r>   -1.5505    1.0000 </r>
       <r>   -1.5505    1.0000 </r>
       <r>   -1.5505    1.0000 </r>
       <r>   -1.5505    1.0000 </r>
       <r>   -1.4021    1.0000 </r>
       <r>   -1.4021    1.0000 </r>
       <r>   -1.4021    1.0000 </r>
       <r>   -1.4021    1.0000 </r>
       <r>   -1.3178    1.0000 </r>
       <r>   -1.3178    1.0000 </r>
       <r>   -1.3178    1.0000 </r>
       <r>   -1.3178    1.0000 </r>
       <r>   -1.2868    1.0000 </r>
       <r>   -1.2868    1.0000 </r>
       <r>   -1.2868    1.0000 </r>
       <r>   -1.2868    1.0000 </r>
       <r>   -1.2308    1.0000 </r>
       <r>   -1.2308    1.0000 </r>
       <r>   -1.2308    1.0000 </r>
       <r>   -1.2308    1.0000 </r>
       <r>   -1.1204    1.0000 </r>
       <r>   -1.1204    1.0000 </r>
       <r>   -1.1204    1.0000 </r>
       <r>   -1.1204    1.0000 </r>
       <r>   -1.1064    1.0000 </r>
       <r>   -1.1064    1.0000 </r>
       <r>   -1.1064    1.0000 </r>
       <r>   -1.1064    1.0000 </r>
       <r>   -1.0684    1.0000 </r>
       <r>   -1.0684    1.0000 </r>
       <r>   -1.0684    1.0000 </r>
       <r>   -1.0684    1.0000 </r>
       <r>   -0.8820    1.0000 </r>
       <r>   -0.8820    1.0000 </r>
       <r>   -0.8820    1.0000 </r>
       <r>   -0.8820    1.0000 </r>
       <r>   -0.4096    1.0000 </r>
       <r>   -0.4096    1.0000 </r>
       <r>   -0.4096    1.0000 </r>
       <r>   -0.4096    1.0000 </r>
       <r>    3.1653    0.0000 </r>
       <r>    3.1653    0.0000 </r>
       <r>    3.1653    0.0000 </r>
       <r>    3.1653    0.0000 </r>
       <r>    4.3489    0.0000 </r>
       <r>    4.3489    0.0000 </r>
       <r>    4.3489    0.0000 </r>
       <r>    4.3489    0.0000 </r>
       <r>    4.4808    0.0000 </r>
       <r>    4.4808    0.0000 </r>
       <r>    4.4808    0.0000 </r>
       <r>    4.4808    0.0000 </r>
       <r>    4.7215    0.0000 </r>
       <r>    4.7215    0.0000 </r>
       <r>    4.7215    0.0000 </r>
       <r>    4.7215    0.0000 </r>
       <r>    4.8112    0.0000 </r>
       <r>    4.8112    0.0000 </r>
       <r>    4.8112    0.0000 </r>
       <r>    4.8112    0.0000 </r>
       <r>    5.9292    0.0000 </r>
       <r>    5.9292    0.0000 </r>
       <r>    5.9292    0.0000 </r>
       <r>    5.9292    0.0000 </r>
       <r>    6.0165    0.0000 </r>
       <r>    6.0165    0.0000 </r>
       <r>    6.0165    0.0000 </r>
       <r>    6.0165    0.0000 </r>
       <r>    6.3607    0.0000 </r>
       <r>    6.3607    0.0000 </r>
       <r>    6.3607    0.0000 </r>
       <r>    6.3607    0.0000 </r>
       <r>    6.5099    0.0000 </r>
       <r>    6.5099    0.0000 </r>
       <r>    6.5099    0.0000 </r>
       <r>    6.5099    0.0000 </r>
       <r>    6.7105    0.0000 </r>
       <r>    6.7126    0.0000 </r>
       <r>    6.7160    0.0000 </r>
       <r>    6.7388    0.0000 </r>
      </set>
      <set comment="kpoint 6">
       <r>  -20.8388    1.0000 </r>
       <r>  -20.8388    1.0000 </r>
       <r>  -20.8388    1.0000 </r>
       <r>  -20.8388    1.0000 </r>
       <r>  -20.8388    1.0000 </r>
       <r>  -20.8388    1.0000 </r>
       <r>  -20.8388    1.0000 </r>
       <r>  -20.8388    1.0000 </r>
       <r>  -16.4232    1.0000 </r>
       <r>  -16.4232    1.0000 </r>
       <r>  -16.4232    1.0000 </r>
       <r>  -16.4232    1.0000 </r>
       <r>  -16.4232    1.0000 </r>
       <r>  -16.4232    1.0000 </r>
       <r>  -16.4231    1.0000 </r>
       <r>  -16.4231    1.0000 </r>
       <r>  -16.4213    1.0000 </r>
       <r>  -16.4213    1.0000 </r>
       <r>  -16.4213    1.0000 </r>
       <r>  -16.4213    1.0000 </r>
       <r>  -16.4213    1.0000 </r>
       <r>  -16.4213    1.0000 </r>
       <r>  -16.4212    1.0000 </r>
       <r>  -16.4212    1.0000 </r>
       <r>  -16.3038    1.0000 </r>
       <r>  -16.3038    1.0000 </r>
       <r>  -16.3038    1.0000 </r>
       <r>  -16.3038    1.0000 </r>
       <r>  -16.3038    1.0000 </r>
       <r>  -16.3038    1.0000 </r>
       <r>  -16.3038    1.0000 </r>
       <r>  -16.3038    1.0000 </r>
       <r>  -16.3004    1.0000 </r>
       <r>  -16.3004    1.0000 </r>
       <r>  -16.3004    1.0000 </r>
       <r>  -16.3004    1.0000 </r>
       <r>  -16.3004    1.0000 </r>
       <r>  -16.3004    1.0000 </r>
       <r>  -16.3003    1.0000 </r>
       <r>  -16.3003    1.0000 </r>
       <r>  -16.3002    1.0000 </r>
       <r>  -16.3002    1.0000 </r>
       <r>  -16.3002    1.0000 </r>
       <r>  -16.3002    1.0000 </r>
       <r>  -16.3002    1.0000 </r>
       <r>  -16.3002    1.0000 </r>
       <r>  -16.3002    1.0000 </r>
       <r>  -16.3002    1.0000 </r>
       <r>  -14.2028    1.0000 </r>
       <r>  -14.2028    1.0000 </r>
       <r>  -14.2010    1.0000 </r>
       <r>  -14.2010    1.0000 </r>
       <r>  -14.1927    1.0000 </r>
       <r>  -14.1927    1.0000 </r>
       <r>  -14.1927    1.0000 </r>
       <r>  -14.1927    1.0000 </r>
       <r>  -13.8862    1.0000 </r>
       <r>  -13.8862    1.0000 </r>
       <r>  -13.8862    1.0000 </r>
       <r>  -13.8862    1.0000 </r>
       <r>  -13.8822    1.0000 </r>
       <r>  -13.8822    1.0000 </r>
       <r>  -13.8778    1.0000 </r>
       <r>  -13.8778    1.0000 </r>
       <r>  -13.8778    1.0000 </r>
       <r>  -13.8778    1.0000 </r>
       <r>  -13.8757    1.0000 </r>
       <r>  -13.8757    1.0000 </r>
       <r>  -13.8757    1.0000 </r>
       <r>  -13.8757    1.0000 </r>
       <r>  -13.8655    1.0000 </r>
       <r>  -13.8655    1.0000 </r>
       <r>   -7.5110    1.0000 </r>
       <r>   -7.5110    1.0000 </r>
       <r>   -7.4986    1.0000 </r>
       <r>   -7.4986    1.0000 </r>
       <r>   -7.4907    1.0000 </r>
       <r>   -7.4907    1.0000 </r>
       <r>   -7.4907    1.0000 </r>
       <r>   -7.4907    1.0000 </r>
       <r>   -7.2574    1.0000 </r>
       <r>   -7.2574    1.0000 </r>
       <r>   -7.2479    1.0000 </r>
       <r>   -7.2479    1.0000 </r>
       <r>   -7.2478    1.0000 </r>
       <r>   -7.2478    1.0000 </r>
       <r>   -7.2403    1.0000 </r>
       <r>   -7.2403    1.0000 </r>
       <r>   -7.2378    1.0000 </r>
       <r>   -7.2378    1.0000 </r>
       <r>   -7.2288    1.0000 </r>
       <r>   -7.2288    1.0000 </r>
       <r>   -7.2288    1.0000 </r>
       <r>   -7.2288    1.0000 </r>
       <r>   -7.2200    1.0000 </r>
       <r>   -7.2200    1.0000 </r>
       <r>   -7.2089    1.0000 </r>
       <r>   -7.2089    1.0000 </r>
       <r>   -7.2089    1.0000 </r>
       <r>   -7.2089    1.0000 </r>
       <r>   -7.1997    1.0000 </r>
       <r>   -7.1997    1.0000 </r>
       <r>   -7.1910    1.0000 </r>
       <r>   -7.1910    1.0000 </r>
       <r>   -2.6132    1.0000 </r>
       <r>   -2.6132    1.0000 </r>
       <r>   -2.5969    1.0000 </r>
       <r>   -2.5969    1.0000 </r>
       <r>   -2.5969    1.0000 </r>
       <r>   -2.5969    1.0000 </r>
       <r>   -2.5914    1.0000 </r>
       <r>   -2.5914    1.0000 </r>
       <r>   -2.5807    1.0000 </r>
       <r>   -2.5807    1.0000 </r>
       <r>   -2.5547    1.0000 </r>
       <r>   -2.5547    1.0000 </r>
       <r>   -2.5547    1.0000 </r>
       <r>   -2.5547    1.0000 </r>
       <r>   -2.5243    1.0000 </r>
       <r>   -2.5243    1.0000 </r>
       <r>   -2.2313    1.0000 </r>
       <r>   -2.2313    1.0000 </r>
       <r>   -2.2108    1.0000 </r>
       <r>   -2.2108    1.0000 </r>
       <r>   -2.1763    1.0000 </r>
[...]
        <r>  0.0037  0.0008  0.0073 </r>
        <r>  0.0021  0.0002  0.0057 </r>
        <r>  0.0037  0.0008  0.0073 </r>
        <r>  0.0021  0.0002  0.0057 </r>
        <r>  0.0060  0.0003  0.0040 </r>
        <r>  0.0021  0.0008  0.0067 </r>
        <r>  0.0000  0.0036  0.0001 </r>
        <r>  0.0000  0.0116  0.0000 </r>
        <r>  0.0000  0.0029  0.0001 </r>
        <r>  0.0000  0.0081  0.0001 </r>
        <r>  0.0000  0.0029  0.0001 </r>
        <r>  0.0000  0.0081  0.0001 </r>
        <r>  0.0000  0.0036  0.0001 </r>
        <r>  0.0000  0.0116  0.0000 </r>
        <r>  0.0000  0.0009  0.0015 </r>
        <r>  0.0002  0.0074  0.0006 </r>
        <r>  0.0000  0.0012  0.0002 </r>
        <r>  0.0026  0.0004  0.0026 </r>
        <r>  0.0000  0.0012  0.0002 </r>
        <r>  0.0026  0.0004  0.0026 </r>
        <r>  0.0000  0.0009  0.0015 </r>
        <r>  0.0002  0.0074  0.0006 </r>
        <r>  0.0004  0.0019  0.0004 </r>
        <r>  0.0003  0.0018  0.0004 </r>
        <r>  0.0007  0.0022  0.0010 </r>
        <r>  0.0002  0.0025  0.0003 </r>
        <r>  0.0007  0.0022  0.0010 </r>
        <r>  0.0002  0.0025  0.0003 </r>
        <r>  0.0004  0.0019  0.0004 </r>
        <r>  0.0003  0.0018  0.0004 </r>
        <r>  0.0000  0.0011  0.0014 </r>
        <r>  0.0001  0.0079  0.0006 </r>
        <r>  0.0003  0.0015  0.0006 </r>
        <r>  0.0028  0.0010  0.0031 </r>
        <r>  0.0003  0.0015  0.0006 </r>
        <r>  0.0028  0.0010  0.0031 </r>
        <r>  0.0000  0.0011  0.0014 </r>
        <r>  0.0001  0.0079  0.0006 </r>
       </set>
       <set comment="band 208">
        <r>  0.0034  0.0006  0.0097 </r>
        <r>  0.0019  0.0005  0.0026 </r>
        <r>  0.0025  0.0005  0.0023 </r>
        <r>  0.0061  0.0005  0.0090 </r>
        <r>  0.0025  0.0005  0.0023 </r>
        <r>  0.0061  0.0005  0.0090 </r>
        <r>  0.0034  0.0006  0.0097 </r>
        <r>  0.0019  0.0005  0.0026 </r>
        <r>  0.0000  0.0030  0.0000 </r>
        <r>  0.0000  0.0087  0.0001 </r>
        <r>  0.0000  0.0025  0.0001 </r>
        <r>  0.0000  0.0121  0.0001 </r>
        <r>  0.0000  0.0025  0.0001 </r>
        <r>  0.0000  0.0121  0.0001 </r>
        <r>  0.0000  0.0030  0.0000 </r>
        <r>  0.0000  0.0087  0.0001 </r>
        <r>  0.0000  0.0014  0.0003 </r>
        <r>  0.0025  0.0007  0.0030 </r>
        <r>  0.0001  0.0007  0.0012 </r>
        <r>  0.0001  0.0077  0.0005 </r>
        <r>  0.0001  0.0007  0.0012 </r>
        <r>  0.0001  0.0077  0.0005 </r>
        <r>  0.0000  0.0014  0.0003 </r>
        <r>  0.0025  0.0007  0.0030 </r>
        <r>  0.0003  0.0029  0.0005 </r>
        <r>  0.0007  0.0015  0.0007 </r>
        <r>  0.0004  0.0013  0.0004 </r>
        <r>  0.0003  0.0027  0.0005 </r>
        <r>  0.0004  0.0013  0.0004 </r>
        <r>  0.0003  0.0027  0.0005 </r>
        <r>  0.0003  0.0029  0.0005 </r>
        <r>  0.0007  0.0015  0.0007 </r>
        <r>  0.0002  0.0017  0.0005 </r>
        <r>  0.0027  0.0007  0.0031 </r>
        <r>  0.0001  0.0009  0.0013 </r>
        <r>  0.0002  0.0076  0.0004 </r>
        <r>  0.0001  0.0009  0.0013 </r>
        <r>  0.0002  0.0076  0.0004 </r>
        <r>  0.0002  0.0017  0.0005 </r>
        <r>  0.0027  0.0007  0.0031 </r>
       </set>
       <set comment="band 209">
        <r>  0.0000  0.0003  0.0197 </r>
        <r>  0.0001  0.0002  0.0139 </r>
        <r>  0.0000  0.0003  0.0199 </r>
        <r>  0.0001  0.0002  0.0139 </r>
        <r>  0.0000  0.0003  0.0199 </r>
        <r>  0.0001  0.0002  0.0136 </r>
        <r>  0.0000  0.0003  0.0199 </r>
        <r>  0.0001  0.0002  0.0146 </r>
        <r>  0.0000  0.0020  0.0008 </r>
        <r>  0.0000  0.0019  0.0008 </r>
        <r>  0.0000  0.0020  0.0008 </r>
        <r>  0.0000  0.0020  0.0008 </r>
        <r>  0.0000  0.0020  0.0008 </r>
        <r>  0.0000  0.0020  0.0008 </r>
        <r>  0.0000  0.0020  0.0008 </r>
        <r>  0.0000  0.0020  0.0008 </r>
        <r>  0.0005  0.0003  0.0020 </r>
        <r>  0.0005  0.0004  0.0020 </r>
        <r>  0.0005  0.0002  0.0013 </r>
        <r>  0.0005  0.0002  0.0013 </r>
        <r>  0.0004  0.0002  0.0013 </r>
        <r>  0.0004  0.0002  0.0013 </r>
        <r>  0.0006  0.0003  0.0021 </r>
        <r>  0.0005  0.0003  0.0020 </r>
        <r>  0.0000  0.0001  0.0014 </r>
        <r>  0.0002  0.0003  0.0009 </r>
        <r>  0.0000  0.0001  0.0014 </r>
        <r>  0.0002  0.0002  0.0009 </r>
        <r>  0.0000  0.0001  0.0014 </r>
        <r>  0.0002  0.0003  0.0009 </r>
        <r>  0.0001  0.0001  0.0015 </r>
        <r>  0.0002  0.0003  0.0010 </r>
        <r>  0.0005  0.0002  0.0013 </r>
        <r>  0.0004  0.0002  0.0013 </r>
        <r>  0.0005  0.0003  0.0020 </r>
        <r>  0.0005  0.0003  0.0020 </r>
        <r>  0.0005  0.0003  0.0020 </r>
        <r>  0.0005  0.0003  0.0020 </r>
        <r>  0.0004  0.0002  0.0013 </r>
        <r>  0.0005  0.0002  0.0014 </r>
       </set>
       <set comment="band 210">
        <r>  0.0001  0.0002  0.0146 </r>
        <r>  0.0000  0.0004  0.0179 </r>
        <r>  0.0001  0.0002  0.0159 </r>
        <r>  0.0000  0.0003  0.0223 </r>
        <r>  0.0001  0.0003  0.0139 </r>
        <r>  0.0000  0.0003  0.0187 </r>
        <r>  0.0001  0.0002  0.0130 </r>
        <r>  0.0000  0.0003  0.0195 </r>
        <r>  0.0000  0.0022  0.0008 </r>
        <r>  0.0000  0.0019  0.0007 </r>
        <r>  0.0000  0.0023  0.0007 </r>
        <r>  0.0000  0.0017  0.0009 </r>
        <r>  0.0000  0.0020  0.0009 </r>
        <r>  0.0000  0.0021  0.0007 </r>
        <r>  0.0000  0.0017  0.0008 </r>
        <r>  0.0000  0.0022  0.0008 </r>
        <r>  0.0006  0.0002  0.0013 </r>
        <r>  0.0003  0.0002  0.0013 </r>
        <r>  0.0003  0.0003  0.0019 </r>
        <r>  0.0008  0.0004  0.0022 </r>
        <r>  0.0007  0.0004  0.0020 </r>
        <r>  0.0003  0.0002  0.0019 </r>
        <r>  0.0003  0.0003  0.0013 </r>
        <r>  0.0006  0.0004  0.0015 </r>
        <r>  0.0002  0.0003  0.0009 </r>
        <r>  0.0001  0.0001  0.0014 </r>
        <r>  0.0002  0.0003  0.0011 </r>
        <r>  0.0001  0.0002  0.0014 </r>
        <r>  0.0003  0.0004  0.0011 </r>
        <r>  0.0001  0.0001  0.0014 </r>
        <r>  0.0001  0.0002  0.0009 </r>
        <r>  0.0001  0.0001  0.0015 </r>
        <r>  0.0005  0.0002  0.0020 </r>
        <r>  0.0006  0.0005  0.0020 </r>
        <r>  0.0003  0.0003  0.0011 </r>
        <r>  0.0007  0.0003  0.0016 </r>
        <r>  0.0006  0.0002  0.0013 </r>
        <r>  0.0002  0.0002  0.0011 </r>
        <r>  0.0005  0.0005  0.0018 </r>
        <r>  0.0004  0.0002  0.0020 </r>
       </set>
       <set comment="band 211">
        <r>  0.0000  0.0007  0.0156 </r>
        <r>  0.0000  0.0007  0.0188 </r>
        <r>  0.0000  0.0005  0.0171 </r>
        <r>  0.0000  0.0005  0.0133 </r>
        <r>  0.0000  0.0005  0.0168 </r>
        <r>  0.0000  0.0005  0.0127 </r>
        <r>  0.0000  0.0007  0.0154 </r>
        <r>  0.0000  0.0007  0.0188 </r>
        <r>  0.0000  0.0038  0.0005 </r>
        <r>  0.0000  0.0007  0.0007 </r>
        <r>  0.0000  0.0022  0.0012 </r>
        <r>  0.0000  0.0037  0.0002 </r>
        <r>  0.0000  0.0022  0.0012 </r>
        <r>  0.0000  0.0037  0.0002 </r>
        <r>  0.0000  0.0039  0.0005 </r>
        <r>  0.0000  0.0007  0.0007 </r>
        <r>  0.0003  0.0008  0.0020 </r>
        <r>  0.0002  0.0002  0.0012 </r>
        <r>  0.0004  0.0006  0.0021 </r>
        <r>  0.0001  0.0003  0.0012 </r>
        <r>  0.0004  0.0006  0.0020 </r>
        <r>  0.0001  0.0003  0.0012 </r>
        <r>  0.0003  0.0008  0.0020 </r>
        <r>  0.0002  0.0002  0.0012 </r>
        <r>  0.0003  0.0004  0.0013 </r>
        <r>  0.0003  0.0003  0.0010 </r>
        <r>  0.0003  0.0002  0.0017 </r>
        <r>  0.0003  0.0003  0.0019 </r>
        <r>  0.0003  0.0003  0.0017 </r>
        <r>  0.0003  0.0003  0.0019 </r>
        <r>  0.0003  0.0004  0.0013 </r>
        <r>  0.0002  0.0003  0.0010 </r>
        <r>  0.0006  0.0014  0.0022 </r>
        <r>  0.0001  0.0005  0.0007 </r>
        <r>  0.0007  0.0012  0.0024 </r>
        <r>  0.0000  0.0007  0.0008 </r>
        <r>  0.0007  0.0012  0.0023 </r>
        <r>  0.0000  0.0007  0.0008 </r>
        <r>  0.0006  0.0013  0.0022 </r>
        <r>  0.0001  0.0004  0.0007 </r>
       </set>
       <set comment="band 212">
        <r>  0.0000  0.0005  0.0166 </r>
        <r>  0.0000  0.0007  0.0182 </r>
        <r>  0.0000  0.0007  0.0177 </r>
        <r>  0.0000  0.0005  0.0116 </r>
        <r>  0.0000  0.0007  0.0177 </r>
        <r>  0.0000  0.0005  0.0118 </r>
        <r>  0.0000  0.0005  0.0161 </r>
        <r>  0.0000  0.0007  0.0187 </r>
        <r>  0.0000  0.0007  0.0008 </r>
        <r>  0.0000  0.0064  0.0003 </r>
        <r>  0.0000  0.0023  0.0001 </r>
        <r>  0.0000  0.0012  0.0013 </r>
        <r>  0.0000  0.0023  0.0001 </r>
        <r>  0.0000  0.0013  0.0014 </r>
        <r>  0.0000  0.0007  0.0008 </r>
        <r>  0.0000  0.0063  0.0004 </r>
        <r>  0.0003  0.0013  0.0013 </r>
        <r>  0.0002  0.0012  0.0017 </r>
        <r>  0.0003  0.0010  0.0011 </r>
        <r>  0.0003  0.0006  0.0015 </r>
        <r>  0.0003  0.0010  0.0011 </r>
        <r>  0.0003  0.0006  0.0015 </r>
        <r>  0.0003  0.0013  0.0013 </r>
        <r>  0.0002  0.0012  0.0018 </r>
        <r>  0.0002  0.0004  0.0017 </r>
        <r>  0.0001  0.0004  0.0011 </r>
        <r>  0.0004  0.0002  0.0014 </r>
        <r>  0.0003  0.0003  0.0015 </r>
        <r>  0.0004  0.0002  0.0014 </r>
        <r>  0.0003  0.0003  0.0016 </r>
        <r>  0.0002  0.0004  0.0018 </r>
        <r>  0.0001  0.0004  0.0011 </r>
        <r>  0.0000  0.0004  0.0009 </r>
        <r>  0.0005  0.0005  0.0024 </r>
        <r>  0.0001  0.0004  0.0011 </r>
        <r>  0.0006  0.0003  0.0025 </r>
        <r>  0.0001  0.0004  0.0011 </r>
        <r>  0.0007  0.0003  0.0025 </r>
        <r>  0.0000  0.0004  0.0009 </r>
        <r>  0.0005  0.0005  0.0024 </r>
       </set>
       <set comment="band 213">
        <r>  0.0000  0.0010  0.0109 </r>
        <r>  0.0000  0.0002  0.0199 </r>
        <r>  0.0000  0.0002  0.0218 </r>
        <r>  0.0000  0.0010  0.0114 </r>
        <r>  0.0000  0.0002  0.0207 </r>
        <r>  0.0001  0.0011  0.0120 </r>
        <r>  0.0000  0.0009  0.0110 </r>
        <r>  0.0000  0.0002  0.0198 </r>
        <r>  0.0000  0.0042  0.0006 </r>
        <r>  0.0000  0.0014  0.0008 </r>
        <r>  0.0000  0.0023  0.0010 </r>
        <r>  0.0000  0.0023  0.0003 </r>
        <r>  0.0000  0.0023  0.0010 </r>
        <r>  0.0000  0.0024  0.0003 </r>
        <r>  0.0000  0.0043  0.0006 </r>
        <r>  0.0000  0.0014  0.0007 </r>
        <r>  0.0003  0.0004  0.0013 </r>
        <r>  0.0004  0.0004  0.0011 </r>
        <r>  0.0002  0.0011  0.0021 </r>
        <r>  0.0002  0.0014  0.0016 </r>
        <r>  0.0002  0.0011  0.0021 </r>
        <r>  0.0001  0.0015  0.0016 </r>
        <r>  0.0004  0.0004  0.0014 </r>
        <r>  0.0005  0.0004  0.0011 </r>
        <r>  0.0006  0.0004  0.0019 </r>
        <r>  0.0001  0.0002  0.0014 </r>
        <r>  0.0001  0.0003  0.0012 </r>
        <r>  0.0004  0.0004  0.0015 </r>
        <r>  0.0001  0.0002  0.0011 </r>
        <r>  0.0005  0.0004  0.0015 </r>
        <r>  0.0006  0.0004  0.0019 </r>
        <r>  0.0001  0.0002  0.0014 </r>
        <r>  0.0004  0.0003  0.0015 </r>
        <r>  0.0003  0.0001  0.0009 </r>
        <r>  0.0003  0.0010  0.0024 </r>
        <r>  0.0000  0.0012  0.0015 </r>
        <r>  0.0003  0.0010  0.0023 </r>
        <r>  0.0000  0.0012  0.0014 </r>
        <r>  0.0004  0.0002  0.0016 </r>
        <r>  0.0003  0.0001  0.0009 </r>
       </set>
       <set comment="band 214">
        <r>  0.0000  0.0002  0.0182 </r>
        <r>  0.0001  0.0007  0.0112 </r>
        <r>  0.0000  0.0009  0.0064 </r>
        <r>  0.0000  0.0004  0.0239 </r>
        <r>  0.0000  0.0008  0.0103 </r>
        <r>  0.0000  0.0005  0.0298 </r>
        <r>  0.0000  0.0004  0.0200 </r>
        <r>  0.0002  0.0009  0.0081 </r>
        <r>  0.0000  0.0016  0.0007 </r>
        <r>  0.0000  0.0019  0.0008 </r>
        <r>  0.0000  0.0036  0.0003 </r>
        <r>  0.0000  0.0028  0.0007 </r>
        <r>  0.0000  0.0035  0.0002 </r>
        <r>  0.0000  0.0032  0.0007 </r>
        <r>  0.0000  0.0015  0.0006 </r>
        <r>  0.0000  0.0023  0.0007 </r>
        <r>  0.0002  0.0001  0.0015 </r>
        <r>  0.0005  0.0015  0.0026 </r>
        <r>  0.0004  0.0003  0.0012 </r>
        <r>  0.0003  0.0002  0.0015 </r>
        <r>  0.0001  0.0003  0.0011 </r>
        <r>  0.0007  0.0006  0.0022 </r>
        <r>  0.0004  0.0005  0.0015 </r>
        <r>  0.0002  0.0008  0.0019 </r>
        <r>  0.0003  0.0001  0.0009 </r>
        <r>  0.0005  0.0004  0.0022 </r>
        <r>  0.0003  0.0009  0.0014 </r>
        <r>  0.0001  0.0002  0.0010 </r>
        <r>  0.0003  0.0009  0.0014 </r>
        <r>  0.0002  0.0003  0.0010 </r>
        <r>  0.0000  0.0003  0.0007 </r>
        <r>  0.0005  0.0006  0.0020 </r>
        <r>  0.0001  0.0012  0.0015 </r>
        <r>  0.0001  0.0021  0.0023 </r>
        <r>  0.0001  0.0003  0.0004 </r>
        <r>  0.0003  0.0002  0.0013 </r>
        <r>  0.0000  0.0005  0.0008 </r>
        <r>  0.0004  0.0009  0.0014 </r>
        <r>  0.0002  0.0012  0.0018 </r>
        <r>  0.0005  0.0022  0.0026 </r>
       </set>
       <set comment="band 215">
        <r>  0.0002  0.0004  0.0169 </r>
        <r>  0.0001  0.0008  0.0167 </r>
        <r>  0.0001  0.0006  0.0159 </r>
        <r>  0.0001  0.0004  0.0158 </r>
        <r>  0.0002  0.0004  0.0115 </r>
        <r>  0.0002  0.0008  0.0260 </r>
        <r>  0.0000  0.0004  0.0139 </r>
        <r>  0.0003  0.0005  0.0186 </r>
        <r>  0.0000  0.0029  0.0001 </r>
        <r>  0.0001  0.0002  0.0003 </r>
        <r>  0.0001  0.0001  0.0003 </r>
        <r>  0.0000  0.0040  0.0001 </r>
        <r>  0.0001  0.0003  0.0003 </r>
        <r>  0.0000  0.0022  0.0000 </r>
        <r>  0.0000  0.0032  0.0001 </r>
        <r>  0.0001  0.0003  0.0002 </r>
        <r>  0.0000  0.0010  0.0017 </r>
        <r>  0.0000  0.0012  0.0006 </r>
        <r>  0.0000  0.0009  0.0015 </r>
        <r>  0.0001  0.0009  0.0013 </r>
        <r>  0.0001  0.0019  0.0024 </r>
        <r>  0.0001  0.0017  0.0020 </r>
        <r>  0.0001  0.0010  0.0014 </r>
        <r>  0.0001  0.0008  0.0012 </r>
        <r>  0.0007  0.0012  0.0010 </r>
        <r>  0.0004  0.0015  0.0008 </r>
        <r>  0.0009  0.0012  0.0009 </r>
        <r>  0.0013  0.0015  0.0014 </r>
        <r>  0.0003  0.0013  0.0006 </r>
        <r>  0.0004  0.0020  0.0005 </r>
        <r>  0.0004  0.0019  0.0005 </r>
        <r>  0.0011  0.0016  0.0011 </r>
        <r>  0.0000  0.0009  0.0010 </r>
        <r>  0.0001  0.0010  0.0017 </r>
        <r>  0.0002  0.0011  0.0015 </r>
        <r>  0.0000  0.0014  0.0017 </r>
        <r>  0.0000  0.0011  0.0012 </r>
        <r>  0.0000  0.0008  0.0011 </r>
        <r>  0.0002  0.0015  0.0016 </r>
        <r>  0.0000  0.0015  0.0018 </r>
       </set>
       <set comment="band 216">
        <r>  0.0000  0.0004  0.0107 </r>
        <r>  0.0007  0.0009  0.0321 </r>
        <r>  0.0000  0.0003  0.0099 </r>
        <r>  0.0002  0.0012  0.0133 </r>
        <r>  0.0002  0.0008  0.0200 </r>
        <r>  0.0002  0.0006  0.0051 </r>
        <r>  0.0003  0.0002  0.0105 </r>
        <r>  0.0005  0.0010  0.0267 </r>
        <r>  0.0000  0.0013  0.0002 </r>
        <r>  0.0000  0.0036  0.0002 </r>
        <r>  0.0000  0.0019  0.0000 </r>
        <r>  0.0000  0.0009  0.0006 </r>
        <r>  0.0000  0.0045  0.0001 </r>
        <r>  0.0000  0.0009  0.0004 </r>
        <r>  0.0000  0.0013  0.0003 </r>
        <r>  0.0000  0.0034  0.0002 </r>
        <r>  0.0002  0.0015  0.0018 </r>
        <r>  0.0002  0.0016  0.0016 </r>
        <r>  0.0001  0.0008  0.0010 </r>
        <r>  0.0000  0.0011  0.0010 </r>
        <r>  0.0000  0.0009  0.0002 </r>
        <r>  0.0001  0.0004  0.0007 </r>
        <r>  0.0001  0.0006  0.0006 </r>
        <r>  0.0002  0.0008  0.0013 </r>
        <r>  0.0006  0.0012  0.0012 </r>
        <r>  0.0006  0.0020  0.0009 </r>
        <r>  0.0000  0.0015  0.0003 </r>
        <r>  0.0008  0.0016  0.0021 </r>
        <r>  0.0012  0.0012  0.0015 </r>
        <r>  0.0019  0.0014  0.0032 </r>
        <r>  0.0001  0.0006  0.0010 </r>
        <r>  0.0006  0.0007  0.0013 </r>
        <r>  0.0001  0.0030  0.0023 </r>
        <r>  0.0005  0.0027  0.0026 </r>
        <r>  0.0001  0.0009  0.0011 </r>
        <r>  0.0000  0.0008  0.0006 </r>
        <r>  0.0001  0.0016  0.0010 </r>
        <r>  0.0003  0.0011  0.0015 </r>
        <r>  0.0001  0.0016  0.0011 </r>
        <r>  0.0000  0.0019  0.0017 </r>
       </set>
      </set>
     </set>
    </set>
   </array>
  </projected>
 </calculation>
 <structure name="finalpos" >
  <crystal>
   <varray name="basis" >
    <v>      11.73535200       0.00000000       0.00000000 </v>
    <v>       0.00000000      11.73535200       0.00000000 </v>
    <v>       0.00000000       0.00000000      11.73535200 </v>
   </varray>
   <i name="volume">   1616.17491673 </i>
   <varray name="rec_basis" >
    <v>       0.08521261       0.00000000       0.00000000 </v>
    <v>       0.00000000       0.08521261       0.00000000 </v>
    <v>       0.00000000       0.00000000       0.08521261 </v>
   </varray>
  </crystal>
  <varray name="positions" >
   <v>       0.25000000       0.25000000       0.25000000 </v>
   <v>       0.25000000       0.25000000       0.75000000 </v>
   <v>       0.25000000       0.75000000       0.25000000 </v>
   <v>       0.25000000       0.75000000       0.75000000 </v>
   <v>       0.75000000       0.25000000       0.25000000 </v>
   <v>       0.75000000       0.25000000       0.75000000 </v>
   <v>       0.75000000       0.75000000       0.25000000 </v>
   <v>       0.75000000       0.75000000       0.75000000 </v>
   <v>       0.00000000       0.00000000       0.00000000 </v>
   <v>       0.00000000       0.00000000       0.50000000 </v>
   <v>       0.00000000       0.50000000       0.00000000 </v>
   <v>       0.00000000       0.50000000       0.50000000 </v>
   <v>       0.50000000       0.00000000       0.00000000 </v>
   <v>       0.50000000       0.00000000       0.50000000 </v>
   <v>       0.50000000       0.50000000       0.00000000 </v>
   <v>       0.50000000       0.50000000       0.50000000 </v>
   <v>       0.96625000       0.25000000       0.03750000 </v>
   <v>       0.96625000       0.25000000       0.46250000 </v>
   <v>       0.03375000       0.75000000       0.96250000 </v>
   <v>       0.03375000       0.75000000       0.53750000 </v>
   <v>       0.53375000       0.25000000       0.96250000 </v>
   <v>       0.53375000       0.25000000       0.53750000 </v>
   <v>       0.46625000       0.75000000       0.03750000 </v>
   <v>       0.46625000       0.75000000       0.46250000 </v>
   <v>       0.03750000       0.96250000       0.25000000 </v>
   <v>       0.96250000       0.03750000       0.75000000 </v>
   <v>       0.96250000       0.53750000       0.25000000 </v>
   <v>       0.03750000       0.46250000       0.75000000 </v>
   <v>       0.46250000       0.03750000       0.25000000 </v>
   <v>       0.53750000       0.96250000       0.75000000 </v>
   <v>       0.53750000       0.46250000       0.25000000 </v>
   <v>       0.46250000       0.53750000       0.75000000 </v>
   <v>       0.25000000       0.03375000       0.96250000 </v>
   <v>       0.25000000       0.03375000       0.53750000 </v>
   <v>       0.25000000       0.46625000       0.03750000 </v>
   <v>       0.25000000       0.46625000       0.46250000 </v>
   <v>       0.75000000       0.96625000       0.03750000 </v>
   <v>       0.75000000       0.96625000       0.46250000 </v>
   <v>       0.75000000       0.53375000       0.96250000 </v>
   <v>       0.75000000       0.53375000       0.53750000 </v>
  </varray>
 </structure>
</modeling>
