 running on   64 total cores
 distrk:  each k-point on   64 cores,    1 groups
 distr:  one band on    8 cores,    8 groups
 using from now: INCAR     
 vasp.5.4.4.18Apr17-6-g9f103f2a35 (build Jun 22 2020 09:27:21) complex           
 POSCAR found type information on POSCAR  Cs Pb Br
 POSCAR found :  3 types and      40 ions
 scaLAPACK will be used
 LDA part: xc-table for Pade appr. of Perdew
 POSCAR found type information on POSCAR  Cs Pb Br
 POSCAR found :  3 types and      40 ions
 POSCAR, INCAR and KPOINTS ok, starting setup
 FFT: planning ...
 WAVECAR not read
 entering main loop
       N       E                     dE             d eps       ncg     rms          rms(c)
DAV:   1     0.134349891438E+04    0.13435E+04   -0.11289E+05  2688   0.958E+02
DAV:   2    -0.112814973627E+04   -0.24716E+04   -0.23765E+04  3144   0.295E+02
DAV:   3    -0.149616183379E+04   -0.36801E+03   -0.36587E+03  3496   0.135E+02
DAV:   4    -0.150844552463E+04   -0.12284E+02   -0.12248E+02  3104   0.323E+01
DAV:   5    -0.150898654662E+04   -0.54102E+00   -0.54078E+00  3416   0.535E+00    0.101E+01
DAV:   6    -0.142949466385E+04    0.79492E+02   -0.23698E+01  3360   0.288E+01    0.717E+00
DAV:   7    -0.142902923535E+04    0.46543E+00   -0.78615E+00  3216   0.502E+00    0.365E+00
DAV:   8    -0.142922544450E+04   -0.19621E+00   -0.38131E-01  3096   0.178E+00    0.209E+00
DAV:   9    -0.142930762546E+04   -0.82181E-01   -0.16379E-01  2896   0.123E+00    0.454E-01
DAV:  10    -0.142930926462E+04   -0.16392E-02   -0.98270E-03  3728   0.333E-01    0.270E-01
DAV:  11    -0.142931220412E+04   -0.29395E-02   -0.32230E-03  2912   0.170E-01    0.967E-02
DAV:  12    -0.142931242350E+04   -0.21938E-03   -0.94869E-04  2960   0.985E-02    0.348E-02
DAV:  13    -0.142931245522E+04   -0.31718E-04   -0.65492E-05  3296   0.231E-02    0.112E-02
DAV:  14    -0.142931244589E+04    0.93243E-05   -0.71986E-06  2624   0.502E-03    0.261E-03
DAV:  15    -0.142931246479E+04   -0.18898E-04   -0.13615E-06  1752   0.383E-03    0.157E-03
DAV:  16    -0.142931245565E+04    0.91411E-05   -0.22019E-07  1696   0.214E-03    0.424E-04
DAV:  17    -0.142931245437E+04    0.12750E-05   -0.49926E-08  1680   0.831E-04    0.224E-04
DAV:  18    -0.142931245366E+04    0.71569E-06   -0.16408E-08  1680   0.572E-04
   1 F= -.14293125E+04 E0= -.14293125E+04  d E =-.166018E-28
Application 1868220 resources: utime ~23148s, stime ~230s, Rss ~130956, inblocks ~1328, outblocks ~271792
