  39  39   1   0
  0.4089970E+02  0.1166870E-08  0.1172985E-08  0.1166870E-08  0.5000000E-15
   1.0000000000000000E-004
  CAR 
 CsPbBr3 cubic bulk                      
      8.04087089    -22.43337894  301      0.75244614      1.00000000
    -22.433  0.0000E+00  0.0000E+00
    -22.332  0.0000E+00  0.0000E+00
    -22.230  0.0000E+00  0.0000E+00
    -22.129  0.0000E+00  0.0000E+00
    -22.027  0.0000E+00  0.0000E+00
    -21.925  0.0000E+00  0.0000E+00
    -21.824  0.0000E+00  0.0000E+00
    -21.722  0.0000E+00  0.0000E+00
    -21.621  0.0000E+00  0.0000E+00
    -21.519  0.0000E+00  0.0000E+00
    -21.418  0.0000E+00  0.0000E+00
    -21.316  0.0000E+00  0.0000E+00
    -21.214  0.0000E+00  0.0000E+00
    -21.113  0.0000E+00  0.0000E+00
    -21.011  0.1969E+02  0.2000E+01
    -20.910  0.1786E+02  0.3814E+01
    -20.808  0.3408E+02  0.7462E+01
    -20.707  0.1969E+02  0.1000E+02
    -20.605  0.1968E+02  0.1200E+02
    -20.503  0.0000E+00  0.1200E+02
    -20.402  0.1969E+02  0.1400E+02
    -20.300  0.0000E+00  0.1400E+02
    -20.199  0.0000E+00  0.1400E+02
    -20.097  0.3599E+01  0.1437E+02
    -19.995  0.0000E+00  0.1600E+02
    -19.894  0.0000E+00  0.1600E+02
    -19.792  0.0000E+00  0.1600E+02
    -19.691  0.0000E+00  0.1600E+02
    -19.589  0.0000E+00  0.1600E+02
    -19.488  0.0000E+00  0.1600E+02
    -19.386  0.0000E+00  0.1600E+02
    -19.284  0.0000E+00  0.1600E+02
    -19.183  0.0000E+00  0.1600E+02
    -19.081  0.0000E+00  0.1600E+02
    -18.980  0.0000E+00  0.1600E+02
    -18.878  0.0000E+00  0.1600E+02
    -18.776  0.0000E+00  0.1600E+02
    -18.675  0.0000E+00  0.1600E+02
    -18.573  0.0000E+00  0.1600E+02
    -18.472  0.0000E+00  0.1600E+02
    -18.370  0.0000E+00  0.1600E+02
    -18.269  0.0000E+00  0.1600E+02
    -18.167  0.0000E+00  0.1600E+02
    -18.065  0.0000E+00  0.1600E+02
    -17.964  0.0000E+00  0.1600E+02
    -17.862  0.0000E+00  0.1600E+02
    -17.761  0.0000E+00  0.1600E+02
    -17.659  0.0000E+00  0.1600E+02
    -17.557  0.0000E+00  0.1600E+02
    -17.456  0.0000E+00  0.1600E+02
    -17.354  0.0000E+00  0.1600E+02
    -17.253  0.0000E+00  0.1600E+02
    -17.151  0.0000E+00  0.1600E+02
    -17.050  0.0000E+00  0.1600E+02
    -16.948  0.9698E-06  0.1600E+02
    -16.846  0.7375E+02  0.2349E+02
    -16.745  0.2165E+03  0.4800E+02
    -16.643  0.7875E+02  0.5600E+02
    -16.542  0.0000E+00  0.5600E+02
    -16.440  0.2263E+02  0.5830E+02
    -16.339  0.9844E+02  0.7200E+02
    -16.237  0.2363E+03  0.9600E+02
    -16.135  0.0000E+00  0.9600E+02
    -16.034  0.0000E+00  0.9600E+02
    -15.932  0.0000E+00  0.9600E+02
    -15.831  0.0000E+00  0.9600E+02
    -15.729  0.0000E+00  0.9600E+02
    -15.627  0.0000E+00  0.9600E+02
    -15.526  0.0000E+00  0.9600E+02
    -15.424  0.0000E+00  0.9600E+02
    -15.323  0.0000E+00  0.9600E+02
    -15.221  0.0000E+00  0.9600E+02
    -15.120  0.0000E+00  0.9600E+02
    -15.018  0.0000E+00  0.9600E+02
    -14.916  0.0000E+00  0.9600E+02
    -14.815  0.0000E+00  0.9600E+02
    -14.713  0.7156E+00  0.9607E+02
    -14.612  0.2952E+02  0.1000E+03
    -14.510  0.0000E+00  0.1000E+03
    -14.408  0.0000E+00  0.1000E+03
    -14.307  0.1444E+02  0.1015E+03
    -14.205  0.4835E+02  0.1074E+03
    -14.104  0.4648E+02  0.1130E+03
    -14.002  0.7138E+02  0.1218E+03
    -13.901  0.5005E+02  0.1286E+03
    -13.799  0.2808E+02  0.1339E+03
    -13.697  0.5593E+02  0.1399E+03
    -13.596  0.0000E+00  0.1400E+03
    -13.494  0.0000E+00  0.1400E+03
    -13.393  0.0000E+00  0.1400E+03
    -13.291  0.0000E+00  0.1400E+03
    -13.190  0.0000E+00  0.1400E+03
    -13.088  0.0000E+00  0.1400E+03
    -12.986  0.0000E+00  0.1400E+03
    -12.885  0.0000E+00  0.1400E+03
    -12.783  0.0000E+00  0.1400E+03
    -12.682  0.1933E+02  0.1420E+03
    -12.580  0.0000E+00  0.1420E+03
    -12.478  0.0000E+00  0.1420E+03
    -12.377  0.0000E+00  0.1420E+03
    -12.275  0.0000E+00  0.1420E+03
    -12.174  0.0000E+00  0.1420E+03
    -12.072  0.0000E+00  0.1420E+03
    -11.971  0.0000E+00  0.1420E+03
    -11.869  0.0000E+00  0.1420E+03
    -11.767  0.0000E+00  0.1420E+03
    -11.666  0.0000E+00  0.1420E+03
    -11.564  0.0000E+00  0.1420E+03
    -11.463  0.0000E+00  0.1420E+03
    -11.361  0.0000E+00  0.1420E+03
    -11.259  0.0000E+00  0.1420E+03
    -11.158  0.0000E+00  0.1420E+03
    -11.056  0.0000E+00  0.1420E+03
    -10.955  0.0000E+00  0.1420E+03
    -10.853  0.0000E+00  0.1420E+03
    -10.752  0.0000E+00  0.1420E+03
    -10.650  0.0000E+00  0.1420E+03
    -10.548  0.0000E+00  0.1420E+03
    -10.447  0.0000E+00  0.1420E+03
    -10.345  0.0000E+00  0.1420E+03
    -10.244  0.0000E+00  0.1420E+03
    -10.142  0.0000E+00  0.1420E+03
    -10.041  0.0000E+00  0.1420E+03
     -9.939  0.0000E+00  0.1420E+03
     -9.837  0.0000E+00  0.1420E+03
     -9.736  0.0000E+00  0.1420E+03
     -9.634  0.0000E+00  0.1420E+03
     -9.533  0.0000E+00  0.1420E+03
     -9.431  0.0000E+00  0.1420E+03
     -9.329  0.0000E+00  0.1420E+03
     -9.228  0.0000E+00  0.1420E+03
     -9.126  0.0000E+00  0.1420E+03
     -9.025  0.0000E+00  0.1420E+03
     -8.923  0.0000E+00  0.1420E+03
     -8.822  0.0000E+00  0.1420E+03
     -8.720  0.0000E+00  0.1420E+03
     -8.618  0.0000E+00  0.1420E+03
     -8.517  0.0000E+00  0.1420E+03
     -8.415  0.0000E+00  0.1420E+03
     -8.314  0.1322E+00  0.1420E+03
     -8.212  0.2461E+01  0.1425E+03
     -8.110  0.4925E+01  0.1430E+03
     -8.009  0.9944E+01  0.1440E+03
     -7.907  0.1473E+02  0.1457E+03
     -7.806  0.6039E+01  0.1464E+03
     -7.704  0.1781E+02  0.1486E+03
     -7.603  0.1856E+01  0.1497E+03
     -7.501  0.1371E+02  0.1519E+03
     -7.399  0.4456E+02  0.1583E+03
     -7.298  0.5863E+02  0.1655E+03
     -7.196  0.1192E+03  0.1786E+03
     -7.095  0.4429E+02  0.1865E+03
     -6.993  0.6182E+02  0.1928E+03
     -6.892  0.1512E+02  0.1948E+03
     -6.790  0.4184E+02  0.1997E+03
     -6.688  0.2067E-05  0.1998E+03
     -6.587  0.2163E+02  0.2019E+03
     -6.485  0.3933E+02  0.2060E+03
     -6.384  0.0000E+00  0.2060E+03
     -6.282  0.0000E+00  0.2060E+03
     -6.180  0.0000E+00  0.2060E+03
     -6.079  0.0000E+00  0.2060E+03
     -5.977  0.0000E+00  0.2060E+03
     -5.876  0.0000E+00  0.2060E+03
     -5.774  0.0000E+00  0.2060E+03
     -5.673  0.0000E+00  0.2060E+03
     -5.571  0.0000E+00  0.2060E+03
     -5.469  0.0000E+00  0.2060E+03
     -5.368  0.0000E+00  0.2060E+03
     -5.266  0.0000E+00  0.2060E+03
     -5.165  0.0000E+00  0.2060E+03
     -5.063  0.0000E+00  0.2060E+03
     -4.961  0.0000E+00  0.2060E+03
     -4.860  0.0000E+00  0.2060E+03
     -4.758  0.0000E+00  0.2060E+03
     -4.657  0.0000E+00  0.2060E+03
     -4.555  0.0000E+00  0.2060E+03
     -4.454  0.0000E+00  0.2060E+03
     -4.352  0.0000E+00  0.2060E+03
     -4.250  0.0000E+00  0.2060E+03
     -4.149  0.0000E+00  0.2060E+03
     -4.047  0.0000E+00  0.2060E+03
     -3.946  0.0000E+00  0.2060E+03
     -3.844  0.0000E+00  0.2060E+03
     -3.743  0.0000E+00  0.2060E+03
     -3.641  0.0000E+00  0.2060E+03
     -3.539  0.0000E+00  0.2060E+03
     -3.438  0.0000E+00  0.2060E+03
     -3.336  0.4777E+01  0.2065E+03
     -3.235  0.3904E+02  0.2115E+03
     -3.133  0.2534E+02  0.2153E+03
     -3.031  0.2727E+02  0.2190E+03
     -2.930  0.7383E+01  0.2200E+03
     -2.828  0.2270E-07  0.2200E+03
     -2.727  0.1542E+02  0.2216E+03
     -2.625  0.3240E+02  0.2250E+03
     -2.524  0.2955E+02  0.2285E+03
     -2.422  0.3115E+02  0.2319E+03
     -2.320  0.3357E+02  0.2367E+03
     -2.219  0.2972E+02  0.2405E+03
     -2.117  0.1961E+02  0.2430E+03
     -2.016  0.2686E+02  0.2465E+03
     -1.914  0.3834E+02  0.2511E+03
     -1.812  0.4458E+02  0.2563E+03
     -1.711  0.4790E+02  0.2624E+03
     -1.609  0.4826E+02  0.2694E+03
     -1.508  0.7871E+02  0.2792E+03
     -1.406  0.6764E+02  0.2881E+03
     -1.305  0.9344E+02  0.2995E+03
     -1.203  0.4710E+02  0.3060E+03
     -1.101  0.9436E+02  0.3176E+03
     -1.000  0.3474E+02  0.3225E+03
     -0.898  0.3644E+02  0.3265E+03
     -0.797  0.2299E+02  0.3298E+03
     -0.695  0.1345E+02  0.3316E+03
     -0.593  0.5823E+01  0.3328E+03
     -0.492  0.1500E+02  0.3350E+03
     -0.390  0.1477E+02  0.3375E+03
     -0.289  0.5730E+01  0.3381E+03
     -0.187  0.2460E+01  0.3385E+03
     -0.086  0.7383E+01  0.3392E+03
      0.016  0.2461E+01  0.3395E+03
      0.118  0.2461E+01  0.3398E+03
      0.219  0.1969E+02  0.3417E+03
      0.321  0.1259E+01  0.3419E+03
      0.422  0.0000E+00  0.3420E+03
      0.524  0.0000E+00  0.3420E+03
      0.625  0.8409E+01  0.3429E+03
      0.727  0.9844E+01  0.3440E+03
      0.829  0.0000E+00  0.3440E+03
      0.930  0.0000E+00  0.3440E+03
      1.032  0.0000E+00  0.3440E+03
      1.133  0.0000E+00  0.3440E+03
      1.235  0.0000E+00  0.3440E+03
      1.337  0.0000E+00  0.3440E+03
      1.438  0.0000E+00  0.3440E+03
      1.540  0.0000E+00  0.3440E+03
      1.641  0.0000E+00  0.3440E+03
      1.743  0.0000E+00  0.3440E+03
      1.844  0.0000E+00  0.3440E+03
      1.946  0.0000E+00  0.3440E+03
      2.048  0.0000E+00  0.3440E+03
      2.149  0.0000E+00  0.3440E+03
      2.251  0.2841E+01  0.3443E+03
      2.352  0.3464E+01  0.3449E+03
      2.454  0.8816E+01  0.3459E+03
      2.556  0.3301E+01  0.3463E+03
      2.657  0.9844E+01  0.3480E+03
      2.759  0.4959E+01  0.3485E+03
      2.860  0.7689E+01  0.3495E+03
      2.962  0.8921E+01  0.3509E+03
      3.063  0.1128E+02  0.3524E+03
      3.165  0.2052E+02  0.3546E+03
      3.267  0.1230E+02  0.3562E+03
      3.368  0.9419E+01  0.3572E+03
      3.470  0.7380E+01  0.3580E+03
      3.571  0.4922E+01  0.3585E+03
      3.673  0.2687E+01  0.3588E+03
      3.774  0.2806E+01  0.3595E+03
      3.876  0.4590E+01  0.3602E+03
      3.978  0.6475E+01  0.3609E+03
      4.079  0.6278E+01  0.3616E+03
      4.181  0.1136E+02  0.3632E+03
      4.282  0.1631E+02  0.3652E+03
      4.384  0.2872E+02  0.3689E+03
      4.486  0.2451E+02  0.3715E+03
      4.587  0.2327E+02  0.3746E+03
      4.689  0.2215E+02  0.3778E+03
      4.790  0.1512E+02  0.3793E+03
      4.892  0.2027E+02  0.3821E+03
      4.993  0.0000E+00  0.3822E+03
      5.095  0.0000E+00  0.3822E+03
      5.197  0.0000E+00  0.3822E+03
      5.298  0.1945E-01  0.3823E+03
      5.400  0.6193E+01  0.3831E+03
      5.501  0.1020E+02  0.3843E+03
      5.603  0.7607E+01  0.3853E+03
      5.705  0.1579E+02  0.3874E+03
      5.806  0.1087E+02  0.3889E+03
      5.908  0.1742E+02  0.3915E+03
      6.009  0.1275E+02  0.3933E+03
      6.111  0.2492E+02  0.3968E+03
      6.212  0.2914E+02  0.4007E+03
      6.314  0.2415E+02  0.4040E+03
      6.416  0.2612E+02  0.4077E+03
      6.517  0.3151E+02  0.4110E+03
      6.619  0.2414E+02  0.4147E+03
      6.720  0.4922E+01  0.4160E+03
      6.822  0.0000E+00  0.4160E+03
      6.923  0.0000E+00  0.4160E+03
      7.025  0.0000E+00  0.4160E+03
      7.127  0.0000E+00  0.4160E+03
      7.228  0.0000E+00  0.4160E+03
      7.330  0.0000E+00  0.4160E+03
      7.431  0.0000E+00  0.4160E+03
      7.533  0.0000E+00  0.4160E+03
      7.635  0.0000E+00  0.4160E+03
      7.736  0.0000E+00  0.4160E+03
      7.838  0.0000E+00  0.4160E+03
      7.939  0.0000E+00  0.4160E+03
      8.041  0.0000E+00  0.4160E+03
      8.04087089    -22.43337894  301      0.75244614      1.00000000
    -22.433  0.0000E+00  0.0000E+00  0.0000E+00
    -22.332  0.0000E+00  0.0000E+00  0.0000E+00
    -22.230  0.0000E+00  0.0000E+00  0.0000E+00
    -22.129  0.0000E+00  0.0000E+00  0.0000E+00
    -22.027  0.0000E+00  0.0000E+00  0.0000E+00
    -21.925  0.0000E+00  0.0000E+00  0.0000E+00
    -21.824  0.0000E+00  0.0000E+00  0.0000E+00
    -21.722  0.0000E+00  0.0000E+00  0.0000E+00
    -21.621  0.0000E+00  0.0000E+00  0.0000E+00
    -21.519  0.0000E+00  0.0000E+00  0.0000E+00
    -21.418  0.0000E+00  0.0000E+00  0.0000E+00
    -21.316  0.0000E+00  0.0000E+00  0.0000E+00
    -21.214  0.0000E+00  0.0000E+00  0.0000E+00
    -21.113  0.0000E+00  0.0000E+00  0.0000E+00
    -21.011  0.8659E-04  0.3676E-07  0.3210E-08
    -20.910  0.1726E-02  0.1671E-06  0.3094E-07
    -20.808  0.1744E+02  0.2842E-04  0.4123E-05
    -20.707  0.8527E-05  0.1872E-08  0.1416E-09
    -20.605  0.2399E-03  0.1455E-06  0.2139E-07
    -20.503  0.0000E+00  0.0000E+00  0.0000E+00
    -20.402  0.5830E-07  0.1113E-08  0.6357E-10
    -20.300  0.0000E+00  0.0000E+00  0.0000E+00
    -20.199  0.0000E+00  0.0000E+00  0.0000E+00
    -20.097  0.1882E-07  0.4832E-09  0.1255E-09
    -19.995  0.0000E+00  0.0000E+00  0.0000E+00
    -19.894  0.0000E+00  0.0000E+00  0.0000E+00
    -19.792  0.0000E+00  0.0000E+00  0.0000E+00
    -19.691  0.0000E+00  0.0000E+00  0.0000E+00
    -19.589  0.0000E+00  0.0000E+00  0.0000E+00
    -19.488  0.0000E+00  0.0000E+00  0.0000E+00
    -19.386  0.0000E+00  0.0000E+00  0.0000E+00
    -19.284  0.0000E+00  0.0000E+00  0.0000E+00
    -19.183  0.0000E+00  0.0000E+00  0.0000E+00
    -19.081  0.0000E+00  0.0000E+00  0.0000E+00
    -18.980  0.0000E+00  0.0000E+00  0.0000E+00
    -18.878  0.0000E+00  0.0000E+00  0.0000E+00
    -18.776  0.0000E+00  0.0000E+00  0.0000E+00
    -18.675  0.0000E+00  0.0000E+00  0.0000E+00
    -18.573  0.0000E+00  0.0000E+00  0.0000E+00
    -18.472  0.0000E+00  0.0000E+00  0.0000E+00
    -18.370  0.0000E+00  0.0000E+00  0.0000E+00
    -18.269  0.0000E+00  0.0000E+00  0.0000E+00
    -18.167  0.0000E+00  0.0000E+00  0.0000E+00
    -18.065  0.0000E+00  0.0000E+00  0.0000E+00
    -17.964  0.0000E+00  0.0000E+00  0.0000E+00
    -17.862  0.0000E+00  0.0000E+00  0.0000E+00
    -17.761  0.0000E+00  0.0000E+00  0.0000E+00
    -17.659  0.0000E+00  0.0000E+00  0.0000E+00
    -17.557  0.0000E+00  0.0000E+00  0.0000E+00
    -17.456  0.0000E+00  0.0000E+00  0.0000E+00
    -17.354  0.0000E+00  0.0000E+00  0.0000E+00
    -17.253  0.0000E+00  0.0000E+00  0.0000E+00
    -17.151  0.0000E+00  0.0000E+00  0.0000E+00
    -17.050  0.0000E+00  0.0000E+00  0.0000E+00
    -16.948  0.1737E-11  0.1134E-11  0.1958E-12
    -16.846  0.6636E-04  0.3009E-04  0.5226E-05
    -16.745  0.2998E-04  0.1738E-04  0.2491E-05
    -16.643  0.1396E-05  0.6281E-06  0.7712E-07
    -16.542  0.0000E+00  0.0000E+00  0.0000E+00
    -16.440  0.2095E-04  0.1435E-04  0.4556E-05
    -16.339  0.1744E-04  0.5082E-04  0.8328E-05
    -16.237  0.8213E-04  0.4794E-04  0.5836E-05
    -16.135  0.0000E+00  0.0000E+00  0.0000E+00
    -16.034  0.0000E+00  0.0000E+00  0.0000E+00
    -15.932  0.0000E+00  0.0000E+00  0.0000E+00
    -15.831  0.0000E+00  0.0000E+00  0.0000E+00
    -15.729  0.0000E+00  0.0000E+00  0.0000E+00
    -15.627  0.0000E+00  0.0000E+00  0.0000E+00
    -15.526  0.0000E+00  0.0000E+00  0.0000E+00
    -15.424  0.0000E+00  0.0000E+00  0.0000E+00
    -15.323  0.0000E+00  0.0000E+00  0.0000E+00
    -15.221  0.0000E+00  0.0000E+00  0.0000E+00
    -15.120  0.0000E+00  0.0000E+00  0.0000E+00
    -15.018  0.0000E+00  0.0000E+00  0.0000E+00
    -14.916  0.0000E+00  0.0000E+00  0.0000E+00
    -14.815  0.0000E+00  0.0000E+00  0.0000E+00
    -14.713  0.8210E-04  0.5139E-04  0.3181E-05
    -14.612  0.1681E-02  0.2484E-02  0.1911E-03
    -14.510  0.0000E+00  0.0000E+00  0.0000E+00
    -14.408  0.0000E+00  0.0000E+00  0.0000E+00
    -14.307  0.9207E-03  0.1018E-02  0.2441E-04
    -14.205  0.4118E-02  0.3568E-02  0.1533E-03
    -14.104  0.8793E-03  0.6046E-02  0.3119E-03
    -14.002  0.2340E-02  0.4888E-02  0.4864E-03
    -13.901  0.4710E-03  0.1792E-02  0.2586E-03
    -13.799  0.1765E-03  0.4504E-03  0.8175E-04
    -13.697  0.2185E-03  0.6707E-03  0.1135E-03
    -13.596  0.0000E+00  0.0000E+00  0.0000E+00
    -13.494  0.0000E+00  0.0000E+00  0.0000E+00
    -13.393  0.0000E+00  0.0000E+00  0.0000E+00
    -13.291  0.0000E+00  0.0000E+00  0.0000E+00
    -13.190  0.0000E+00  0.0000E+00  0.0000E+00
    -13.088  0.0000E+00  0.0000E+00  0.0000E+00
    -12.986  0.0000E+00  0.0000E+00  0.0000E+00
    -12.885  0.0000E+00  0.0000E+00  0.0000E+00
    -12.783  0.0000E+00  0.0000E+00  0.0000E+00
    -12.682  0.1805E-06  0.7905E-06  0.3669E-07
    -12.580  0.0000E+00  0.0000E+00  0.0000E+00
    -12.478  0.0000E+00  0.0000E+00  0.0000E+00
    -12.377  0.0000E+00  0.0000E+00  0.0000E+00
    -12.275  0.0000E+00  0.0000E+00  0.0000E+00
    -12.174  0.0000E+00  0.0000E+00  0.0000E+00
    -12.072  0.0000E+00  0.0000E+00  0.0000E+00
    -11.971  0.0000E+00  0.0000E+00  0.0000E+00
    -11.869  0.0000E+00  0.0000E+00  0.0000E+00
    -11.767  0.0000E+00  0.0000E+00  0.0000E+00
    -11.666  0.0000E+00  0.0000E+00  0.0000E+00
    -11.564  0.0000E+00  0.0000E+00  0.0000E+00
    -11.463  0.0000E+00  0.0000E+00  0.0000E+00
    -11.361  0.0000E+00  0.0000E+00  0.0000E+00
    -11.259  0.0000E+00  0.0000E+00  0.0000E+00
    -11.158  0.0000E+00  0.0000E+00  0.0000E+00
    -11.056  0.0000E+00  0.0000E+00  0.0000E+00
    -10.955  0.0000E+00  0.0000E+00  0.0000E+00
    -10.853  0.0000E+00  0.0000E+00  0.0000E+00
    -10.752  0.0000E+00  0.0000E+00  0.0000E+00
    -10.650  0.0000E+00  0.0000E+00  0.0000E+00
    -10.548  0.0000E+00  0.0000E+00  0.0000E+00
    -10.447  0.0000E+00  0.0000E+00  0.0000E+00
    -10.345  0.0000E+00  0.0000E+00  0.0000E+00
    -10.244  0.0000E+00  0.0000E+00  0.0000E+00
    -10.142  0.0000E+00  0.0000E+00  0.0000E+00
    -10.041  0.0000E+00  0.0000E+00  0.0000E+00
     -9.939  0.0000E+00  0.0000E+00  0.0000E+00
     -9.837  0.0000E+00  0.0000E+00  0.0000E+00
     -9.736  0.0000E+00  0.0000E+00  0.0000E+00
     -9.634  0.0000E+00  0.0000E+00  0.0000E+00
     -9.533  0.0000E+00  0.0000E+00  0.0000E+00
     -9.431  0.0000E+00  0.0000E+00  0.0000E+00
     -9.329  0.0000E+00  0.0000E+00  0.0000E+00
     -9.228  0.0000E+00  0.0000E+00  0.0000E+00
     -9.126  0.0000E+00  0.0000E+00  0.0000E+00
     -9.025  0.0000E+00  0.0000E+00  0.0000E+00
     -8.923  0.0000E+00  0.0000E+00  0.0000E+00
     -8.822  0.0000E+00  0.0000E+00  0.0000E+00
     -8.720  0.0000E+00  0.0000E+00  0.0000E+00
     -8.618  0.0000E+00  0.0000E+00  0.0000E+00
     -8.517  0.0000E+00  0.0000E+00  0.0000E+00
     -8.415  0.0000E+00  0.0000E+00  0.0000E+00
     -8.314  0.7789E-20  0.8775E-05  0.5074E-06
     -8.212  0.1103E-17  0.3819E-03  0.9379E-05
     -8.110  0.6771E-16  0.2539E-02  0.1019E-04
     -8.009  0.2861E-10  0.4236E-02  0.3373E-04
     -7.907  0.1604E-07  0.1689E-01  0.3489E-04
     -7.806  0.1336E-06  0.1949E-01  0.1332E-04
     -7.704  0.9884E-05  0.2462E-01  0.6208E-04
     -7.603  0.9633E-06  0.1031E-01  0.4417E-05
     -7.501  0.3748E-04  0.3924E-01  0.4388E-04
     -7.399  0.1124E-04  0.2779E-01  0.1757E-04
     -7.298  0.4249E-04  0.9903E+00  0.4311E-04
     -7.196  0.5548E-04  0.4035E+02  0.8645E-04
     -7.095  0.1381E-04  0.7085E+00  0.2546E-04
     -6.993  0.9163E-05  0.1623E+00  0.4133E-04
     -6.892  0.1393E-04  0.1067E-01  0.9734E-06
     -6.790  0.1231E-05  0.8895E-02  0.4787E-05
     -6.688  0.4690E-11  0.2913E-08  0.5207E-12
     -6.587  0.1198E-04  0.1178E-01  0.1011E-04
     -6.485  0.5609E-05  0.4080E-02  0.6077E-05
     -6.384  0.0000E+00  0.0000E+00  0.0000E+00
     -6.282  0.0000E+00  0.0000E+00  0.0000E+00
     -6.180  0.0000E+00  0.0000E+00  0.0000E+00
     -6.079  0.0000E+00  0.0000E+00  0.0000E+00
     -5.977  0.0000E+00  0.0000E+00  0.0000E+00
     -5.876  0.0000E+00  0.0000E+00  0.0000E+00
     -5.774  0.0000E+00  0.0000E+00  0.0000E+00
     -5.673  0.0000E+00  0.0000E+00  0.0000E+00
     -5.571  0.0000E+00  0.0000E+00  0.0000E+00
     -5.469  0.0000E+00  0.0000E+00  0.0000E+00
     -5.368  0.0000E+00  0.0000E+00  0.0000E+00
     -5.266  0.0000E+00  0.0000E+00  0.0000E+00
     -5.165  0.0000E+00  0.0000E+00  0.0000E+00
     -5.063  0.0000E+00  0.0000E+00  0.0000E+00
     -4.961  0.0000E+00  0.0000E+00  0.0000E+00
     -4.860  0.0000E+00  0.0000E+00  0.0000E+00
     -4.758  0.0000E+00  0.0000E+00  0.0000E+00
     -4.657  0.0000E+00  0.0000E+00  0.0000E+00
     -4.555  0.0000E+00  0.0000E+00  0.0000E+00
     -4.454  0.0000E+00  0.0000E+00  0.0000E+00
     -4.352  0.0000E+00  0.0000E+00  0.0000E+00
     -4.250  0.0000E+00  0.0000E+00  0.0000E+00
     -4.149  0.0000E+00  0.0000E+00  0.0000E+00
     -4.047  0.0000E+00  0.0000E+00  0.0000E+00
     -3.946  0.0000E+00  0.0000E+00  0.0000E+00
     -3.844  0.0000E+00  0.0000E+00  0.0000E+00
     -3.743  0.0000E+00  0.0000E+00  0.0000E+00
     -3.641  0.0000E+00  0.0000E+00  0.0000E+00
     -3.539  0.0000E+00  0.0000E+00  0.0000E+00
     -3.438  0.0000E+00  0.0000E+00  0.0000E+00
     -3.336  0.5000E-04  0.5577E-02  0.1175E-03
     -3.235  0.3190E-03  0.1943E-01  0.1908E-02
     -3.133  0.3681E-05  0.1859E-01  0.1705E-02
     -3.031  0.2191E-13  0.1862E-01  0.1211E-02
     -2.930  0.9865E-14  0.5147E-02  0.1981E-03
     -2.828  0.1432E-11  0.1810E-10  0.7241E-12
     -2.727  0.5223E-03  0.2969E-01  0.1052E-02
     -2.625  0.2001E-02  0.1504E-01  0.1920E-02
     -2.524  0.7158E-03  0.2436E-01  0.1483E-02
     -2.422  0.5590E-02  0.2023E-01  0.2577E-02
     -2.320  0.9371E-02  0.1321E-01  0.2537E-02
     -2.219  0.9649E-02  0.3525E-01  0.3883E-02
     -2.117  0.5212E-02  0.3757E-01  0.2672E-02
     -2.016  0.8310E-02  0.3082E-01  0.3790E-02
     -1.914  0.4791E-02  0.8469E-01  0.7215E-02
     -1.812  0.3116E-02  0.7915E-01  0.6510E-02
     -1.711  0.2778E-02  0.7112E-01  0.7661E-02
     -1.609  0.1435E-02  0.8780E-01  0.7867E-02
     -1.508  0.5126E-02  0.8029E-01  0.1749E-01
     -1.406  0.2648E-02  0.6769E-01  0.1694E-01
     -1.305  0.3894E-02  0.7038E-01  0.1454E-01
     -1.203  0.2169E-02  0.2930E-01  0.8212E-02
     -1.101  0.1514E-02  0.5784E-01  0.1162E-01
     -1.000  0.4105E-03  0.2936E-01  0.3033E-02
     -0.898  0.3596E-03  0.1812E-01  0.4642E-02
     -0.797  0.8304E-03  0.7495E-02  0.1668E-02
     -0.695  0.2208E-03  0.1455E-02  0.4024E-03
     -0.593  0.9414E-04  0.1395E-02  0.2768E-03
     -0.492  0.6621E-04  0.2242E-02  0.6607E-03
     -0.390  0.8652E-05  0.6662E-03  0.1333E-03
     -0.289  0.2738E-15  0.1097E-02  0.2425E-03
     -0.187  0.2129E-05  0.5096E-03  0.1957E-03
     -0.086  0.2546E-05  0.1399E-02  0.4819E-03
      0.016  0.6351E-15  0.4689E-04  0.1819E-03
      0.118  0.1165E-13  0.8846E-04  0.9879E-04
      0.219  0.8374E-05  0.6545E-04  0.2352E-04
      0.321  0.2407E-15  0.5333E-06  0.1329E-03
      0.422  0.0000E+00  0.0000E+00  0.0000E+00
      0.524  0.0000E+00  0.0000E+00  0.0000E+00
      0.625  0.6634E-05  0.5562E-04  0.3073E-04
      0.727  0.1772E-15  0.1248E-04  0.8215E-05
      0.829  0.0000E+00  0.0000E+00  0.0000E+00
      0.930  0.0000E+00  0.0000E+00  0.0000E+00
      1.032  0.0000E+00  0.0000E+00  0.0000E+00
      1.133  0.0000E+00  0.0000E+00  0.0000E+00
      1.235  0.0000E+00  0.0000E+00  0.0000E+00
      1.337  0.0000E+00  0.0000E+00  0.0000E+00
      1.438  0.0000E+00  0.0000E+00  0.0000E+00
      1.540  0.0000E+00  0.0000E+00  0.0000E+00
      1.641  0.0000E+00  0.0000E+00  0.0000E+00
      1.743  0.0000E+00  0.0000E+00  0.0000E+00
      1.844  0.0000E+00  0.0000E+00  0.0000E+00
      1.946  0.0000E+00  0.0000E+00  0.0000E+00
      2.048  0.0000E+00  0.0000E+00  0.0000E+00
      2.149  0.0000E+00  0.0000E+00  0.0000E+00
      2.251  0.1084E-03  0.4629E-03  0.1682E-03
      2.352  0.1895E-03  0.5531E-03  0.2963E-03
      2.454  0.3248E-03  0.1198E-02  0.1154E-02
      2.556  0.1864E-04  0.5271E-03  0.1007E-02
      2.657  0.3201E-03  0.7268E-03  0.2142E-02
      2.759  0.7026E-05  0.4394E-03  0.7460E-03
      2.860  0.3704E-03  0.5384E-03  0.1647E-02
      2.962  0.4770E-03  0.1860E-02  0.2325E-02
      3.063  0.3702E-03  0.1447E-02  0.2195E-02
      3.165  0.1031E-02  0.3073E-02  0.3714E-02
      3.267  0.1838E-03  0.9281E-03  0.3898E-02
      3.368  0.3352E-03  0.1776E-02  0.1134E-02
      3.470  0.1286E-03  0.7729E-03  0.1874E-02
      3.571  0.2483E-04  0.5678E-03  0.9594E-03
      3.673  0.4378E-13  0.2160E-03  0.1689E-02
      3.774  0.1189E-13  0.1177E-02  0.1275E-03
      3.876  0.9345E-14  0.8220E-03  0.1944E-02
      3.978  0.6875E-14  0.4350E-03  0.2081E-02
      4.079  0.7359E-14  0.6800E-03  0.1837E-02
      4.181  0.9061E-13  0.5988E-03  0.7172E-02
      4.282  0.1628E-03  0.2595E-02  0.1173E-01
      4.384  0.2326E-02  0.4748E-02  0.7582E-02
      4.486  0.1212E-02  0.4445E-02  0.5249E-02
      4.587  0.3052E-02  0.3251E-02  0.1085E-01
      4.689  0.3750E-02  0.3938E-02  0.6998E-02
      4.790  0.3186E-03  0.2743E-02  0.5968E-02
      4.892  0.1797E-01  0.5156E-02  0.8644E-02
      4.993  0.0000E+00  0.0000E+00  0.0000E+00
      5.095  0.0000E+00  0.0000E+00  0.0000E+00
      5.197  0.0000E+00  0.0000E+00  0.0000E+00
      5.298  0.5492E-04  0.4003E-04  0.9663E-05
      5.400  0.1479E-01  0.1620E-02  0.2457E-02
      5.501  0.2229E-01  0.1620E-02  0.1494E-01
      5.603  0.9463E-02  0.9043E-02  0.1302E-01
      5.705  0.1123E-01  0.8273E-02  0.1812E-01
      5.806  0.1090E-02  0.2556E-02  0.2460E-01
      5.908  0.2636E-01  0.1584E-01  0.5755E-01
      6.009  0.6486E-02  0.4678E-02  0.4735E-01
      6.111  0.7502E-01  0.1663E-01  0.1715E+00
      6.212  0.2656E-01  0.8664E-02  0.4207E+00
      6.314  0.3464E-01  0.1411E-01  0.4374E+00
      6.416  0.7378E-02  0.1996E-01  0.1987E+00
      6.517  0.4027E-01  0.2063E-01  0.4486E+00
      6.619  0.1286E-01  0.2259E-01  0.4273E+00
      6.720  0.1218E-02  0.6680E-02  0.1112E+00
      6.822  0.0000E+00  0.0000E+00  0.0000E+00
      6.923  0.0000E+00  0.0000E+00  0.0000E+00
      7.025  0.0000E+00  0.0000E+00  0.0000E+00
      7.127  0.0000E+00  0.0000E+00  0.0000E+00
      7.228  0.0000E+00  0.0000E+00  0.0000E+00
      7.330  0.0000E+00  0.0000E+00  0.0000E+00
      7.431  0.0000E+00  0.0000E+00  0.0000E+00
      7.533  0.0000E+00  0.0000E+00  0.0000E+00
      7.635  0.0000E+00  0.0000E+00  0.0000E+00
      7.736  0.0000E+00  0.0000E+00  0.0000E+00
      7.838  0.0000E+00  0.0000E+00  0.0000E+00
      7.939  0.0000E+00  0.0000E+00  0.0000E+00
      8.041  0.0000E+00  0.0000E+00  0.0000E+00
      8.04087089    -22.43337894  301      0.75244614      1.00000000
    -22.433  0.0000E+00  0.0000E+00  0.0000E+00
    -22.332  0.0000E+00  0.0000E+00  0.0000E+00
    -22.230  0.0000E+00  0.0000E+00  0.0000E+00
    -22.129  0.0000E+00  0.0000E+00  0.0000E+00
    -22.027  0.0000E+00  0.0000E+00  0.0000E+00
    -21.925  0.0000E+00  0.0000E+00  0.0000E+00
    -21.824  0.0000E+00  0.0000E+00  0.0000E+00
    -21.722  0.0000E+00  0.0000E+00  0.0000E+00
    -21.621  0.0000E+00  0.0000E+00  0.0000E+00
    -21.519  0.0000E+00  0.0000E+00  0.0000E+00
    -21.418  0.0000E+00  0.0000E+00  0.0000E+00
    -21.316  0.0000E+00  0.0000E+00  0.0000E+00
    -21.214  0.0000E+00  0.0000E+00  0.0000E+00
    -21.113  0.0000E+00  0.0000E+00  0.0000E+00
    -21.011  0.3098E-07  0.1414E-08  0.8061E-10
    -20.910  0.4018E-03  0.1310E-06  0.1873E-07
    -20.808  0.1030E-03  0.2799E-08  0.4784E-09
    -20.707  0.1748E+02  0.8231E-05  0.3704E-05
    -20.605  0.2761E-03  0.6428E-07  0.9955E-08
    -20.503  0.0000E+00  0.0000E+00  0.0000E+00
    -20.402  0.4404E-04  0.4951E-07  0.5011E-08
    -20.300  0.0000E+00  0.0000E+00  0.0000E+00
    -20.199  0.0000E+00  0.0000E+00  0.0000E+00
    -20.097  0.2238E-07  0.4935E-09  0.2321E-10
    -19.995  0.0000E+00  0.0000E+00  0.0000E+00
    -19.894  0.0000E+00  0.0000E+00  0.0000E+00
    -19.792  0.0000E+00  0.0000E+00  0.0000E+00
    -19.691  0.0000E+00  0.0000E+00  0.0000E+00
    -19.589  0.0000E+00  0.0000E+00  0.0000E+00
    -19.488  0.0000E+00  0.0000E+00  0.0000E+00
    -19.386  0.0000E+00  0.0000E+00  0.0000E+00
    -19.284  0.0000E+00  0.0000E+00  0.0000E+00
    -19.183  0.0000E+00  0.0000E+00  0.0000E+00
    -19.081  0.0000E+00  0.0000E+00  0.0000E+00
    -18.980  0.0000E+00  0.0000E+00  0.0000E+00
    -18.878  0.0000E+00  0.0000E+00  0.0000E+00
    -18.776  0.0000E+00  0.0000E+00  0.0000E+00
    -18.675  0.0000E+00  0.0000E+00  0.0000E+00
    -18.573  0.0000E+00  0.0000E+00  0.0000E+00
    -18.472  0.0000E+00  0.0000E+00  0.0000E+00
    -18.370  0.0000E+00  0.0000E+00  0.0000E+00
    -18.269  0.0000E+00  0.0000E+00  0.0000E+00
    -18.167  0.0000E+00  0.0000E+00  0.0000E+00
    -18.065  0.0000E+00  0.0000E+00  0.0000E+00
    -17.964  0.0000E+00  0.0000E+00  0.0000E+00
    -17.862  0.0000E+00  0.0000E+00  0.0000E+00
    -17.761  0.0000E+00  0.0000E+00  0.0000E+00
    -17.659  0.0000E+00  0.0000E+00  0.0000E+00
    -17.557  0.0000E+00  0.0000E+00  0.0000E+00
    -17.456  0.0000E+00  0.0000E+00  0.0000E+00
    -17.354  0.0000E+00  0.0000E+00  0.0000E+00
    -17.253  0.0000E+00  0.0000E+00  0.0000E+00
    -17.151  0.0000E+00  0.0000E+00  0.0000E+00
    -17.050  0.0000E+00  0.0000E+00  0.0000E+00
    -16.948  0.5901E-13  0.5047E-12  0.8331E-13
    -16.846  0.6867E-04  0.3872E-04  0.8333E-05
    -16.745  0.5565E-04  0.3456E-04  0.5872E-05
    -16.643  0.1801E-04  0.8403E-05  0.1188E-05
    -16.542  0.0000E+00  0.0000E+00  0.0000E+00
    -16.440  0.3274E-04  0.1596E-04  0.2353E-05
    -16.339  0.3320E-04  0.3392E-04  0.5183E-05
    -16.237  0.9426E-05  0.5516E-05  0.6359E-06
    -16.135  0.0000E+00  0.0000E+00  0.0000E+00
    -16.034  0.0000E+00  0.0000E+00  0.0000E+00
    -15.932  0.0000E+00  0.0000E+00  0.0000E+00
    -15.831  0.0000E+00  0.0000E+00  0.0000E+00
    -15.729  0.0000E+00  0.0000E+00  0.0000E+00
    -15.627  0.0000E+00  0.0000E+00  0.0000E+00
    -15.526  0.0000E+00  0.0000E+00  0.0000E+00
    -15.424  0.0000E+00  0.0000E+00  0.0000E+00
    -15.323  0.0000E+00  0.0000E+00  0.0000E+00
    -15.221  0.0000E+00  0.0000E+00  0.0000E+00
    -15.120  0.0000E+00  0.0000E+00  0.0000E+00
    -15.018  0.0000E+00  0.0000E+00  0.0000E+00
    -14.916  0.0000E+00  0.0000E+00  0.0000E+00
    -14.815  0.0000E+00  0.0000E+00  0.0000E+00
    -14.713  0.9541E-04  0.3821E-04  0.3273E-05
    -14.612  0.1967E-02  0.3041E-02  0.1856E-03
    -14.510  0.0000E+00  0.0000E+00  0.0000E+00
    -14.408  0.0000E+00  0.0000E+00  0.0000E+00
    -14.307  0.3521E-03  0.3067E-03  0.1892E-04
    -14.205  0.1607E-02  0.1860E-02  0.1051E-03
    -14.104  0.1066E-02  0.3816E-02  0.2647E-03
    -14.002  0.2767E-02  0.4871E-02  0.4100E-03
    -13.901  0.1006E-02  0.3717E-02  0.3080E-03
    -13.799  0.4090E-03  0.9371E-03  0.5625E-04
    -13.697  0.4006E-03  0.1361E-02  0.2569E-03
    -13.596  0.0000E+00  0.0000E+00  0.0000E+00
    -13.494  0.0000E+00  0.0000E+00  0.0000E+00
    -13.393  0.0000E+00  0.0000E+00  0.0000E+00