 vasp.5.4.4.18Apr17-6-g9f103f2a35 (build Jun 22 2020 09:27:21) complex           
 executed on tx2_gcc-7.3_libsci-1 date 2021.10.11  19:32:32
 running on   64 total cores
 distrk:  each k-point on   64 cores,    1 groups
 distr:  one band on NCORES_PER_BAND=   8 cores,    8 groups


--------------------------------------------------------------------------------------------------------


 INCAR:
 POTCAR:    PAW_PBE Cs_sv 08Apr2002               
 POTCAR:    PAW_PBE Pb_d 06Sep2000                
 POTCAR:    PAW_PBE Br 06Sep2000                  
 POTCAR:    PAW_PBE Cs_sv 08Apr2002               
   SHA256 =  c1463496f0f6037ed62c6012a8013a89ee9ad6ffb38599dcd6c079e7ed31779b Cs
   COPYR  = (c) Copyright 08Apr2002 Georg Kresse                                
   COPYR  = This file is part of the software VASP. Any use, copying, and all ot
   COPYR  = If you do not have a valid VASP license, you may not use, copy or di
   VRHFIN =Cs: 5s5p6s                                                           
   LEXCH  = PE                                                                  
   EATOM  =   555.6835 eV,   40.8416 Ry                                         
                                                                                
   TITEL  = PAW_PBE Cs_sv 08Apr2002                                             
   LULTRA =        F    use ultrasoft PP ?                                      
   IUNSCR =        1    unscreen: 0-lin 1-nonlin 2-no                           
   RPACOR =    2.200    partial core radius                                     
   POMASS =  132.900; ZVAL   =    9.000    mass and valenz                      
   RCORE  =    2.500    outmost cutoff radius                                   
   RWIGS  =    2.500; RWIGS  =    1.323    wigner-seitz radius (au A)           
   ENMAX  =  220.318; ENMIN  =  165.238 eV                                      
   RCLOC  =    2.207    cutoff for local pot                                    
   LCOR   =        T    correct aug charges                                     
   LPAW   =        T    paw PP                                                  
   EAUG   =  407.933                                                            
   DEXC   =    0.000                                                            
   RMAX   =    2.554    core radius for proj-oper                               
   RAUG   =    1.300    factor for augmentation sphere                          
   RDEP   =    2.590    radius for radial grids                                 
   RDEPT  =    2.117    core radius for aug-charge                              
                                                                                
   Atomic configuration                                                         
   13 entries                                                                   
     n  l   j            E        occ.                                          
     1  0  0.50    -35790.1377   2.0000                                         
     2  0  0.50     -5613.6201   2.0000                                         
     2  1  1.50     -5035.0101   6.0000                                         
     3  0  0.50     -1167.0767   2.0000                                         
     3  1  1.50      -980.9754   6.0000                                         
     3  2  2.50      -708.0703  10.0000                                         
     4  0  0.50      -220.2386   2.0000                                         
     4  1  1.50      -160.7596   6.0000                                         
     4  2  2.50       -74.2354  10.0000                                         
     5  0  0.50       -26.7287   2.0000                                         
     6  0  0.50        -2.0862   1.0000                                         
     5  1  1.50       -13.5159   6.0000                                         
     5  2  2.50        -0.4136   0.0000                                         
   Description                                                                  
     l       E           TYP  RCUT    TYP  RCUT                                 
     0    -26.7287425     23  1.900                                             
     0     -2.0862306     23  1.900                                             
     1    -13.5158719     23  2.500                                             
     1     -2.7211652     23  2.500                                             
     2     -0.4136171     23  2.500                                             
  local pseudopotential read in
  partial core-charges read in
  partial kinetic energy density read in
  atomic valenz-charges read in
  non local Contribution for L=           0  read in
    real space projection operators read in
  non local Contribution for L=           0  read in
    real space projection operators read in
  non local Contribution for L=           1  read in
    real space projection operators read in
  non local Contribution for L=           1  read in
    real space projection operators read in
  non local Contribution for L=           2  read in
    real space projection operators read in
    PAW grid and wavefunctions read in

   number of l-projection  operators is LMAX  =           5
   number of lm-projection operators is LMMAX =          13

 POTCAR:    PAW_PBE Pb_d 06Sep2000                
   SHA256 =  fb885b08f0fba73a15f6a6b0e39bd200c13ec96ef97cf3ecd8e63bade5137abd Pb
   COPYR  = (c) Copyright 06Sep2000 Georg Kresse                                
   COPYR  = This file is part of the software VASP. Any use, copying, and all ot
   COPYR  = If you do not have a valid VASP license, you may not use, copy or di
   VRHFIN =Pb:                                                                  
   LEXCH  = PE                                                                  
   EATOM  =  1661.6185 eV,  122.1255 Ry                                         
                                                                                
   TITEL  = PAW_PBE Pb_d 06Sep2000                                              
   LULTRA =        F    use ultrasoft PP ?                                      
   IUNSCR =        1    unscreen: 0-lin 1-nonlin 2-no                           
   RPACOR =    2.200    partial core radius                                     
   POMASS =  207.200; ZVAL   =   14.000    mass and valenz                      
   RCORE  =    2.500    outmost cutoff radius                                   
   RWIGS  =    3.260; RWIGS  =    1.725    wigner-seitz radius (au A)           
   ENMAX  =  237.835; ENMIN  =  178.376 eV                                      
   ICORE  =        3    local potential                                         
   LCOR   =        T    correct aug charges                                     
   LPAW   =        T    paw PP                                                  
   EAUG   =  391.914                                                            
   DEXC   =    0.000                                                            
   RMAX   =    2.565    core radius for proj-oper                               
   RAUG   =    1.300    factor for augmentation sphere                          
   RDEP   =    2.643    radius for radial grids                                 
   RDEPT  =    2.092    core radius for aug-charge                              
                                                                                
   Atomic configuration                                                         
   16 entries                                                                   
     n  l   j            E        occ.                                          
     1  0  0.50    -88091.8466   2.0000                                         
     2  0  0.50    -15753.4197   2.0000                                         
     2  1  1.50    -13508.1797   6.0000                                         
     3  0  0.50     -3781.7194   2.0000                                         
     3  1  1.50     -3138.2529   6.0000                                         
     3  2  2.50     -2483.2977  10.0000                                         
     4  0  0.50      -856.2895   2.0000                                         
     4  1  1.50      -645.4942   6.0000                                         
     4  2  2.50      -401.8768  10.0000                                         
     4  3  3.50      -132.9059  14.0000                                         
     5  0  0.50      -144.0950   2.0000                                         
     5  1  1.50       -85.7879   6.0000                                         
     5  2  2.50       -21.1769  10.0000                                         
     6  0  0.50       -12.0372   2.0000                                         
     6  1  1.50        -3.4971   2.0000                                         
     5  3  2.50        -2.7212   0.0000                                         
   Description                                                                  
     l       E           TYP  RCUT    TYP  RCUT                                 
     2    -21.1768523     23  2.500                                             
     2      1.3605826     23  2.500                                             
     0    -12.0371562     23  2.500                                             
     0     13.6058260     23  2.500                                             
     1     -3.4971339     23  2.500                                             
     1     13.6058260     23  2.500                                             
     3     -1.3605826      7  2.500                                             
  local pseudopotential read in
  partial core-charges read in
  partial kinetic energy density read in
  atomic valenz-charges read in
  non local Contribution for L=           2  read in
    real space projection operators read in
  non local Contribution for L=           2  read in
    real space projection operators read in
  non local Contribution for L=           0  read in
    real space projection operators read in
  non local Contribution for L=           0  read in
    real space projection operators read in
  non local Contribution for L=           1  read in
    real space projection operators read in
  non local Contribution for L=           1  read in
    real space projection operators read in
    PAW grid and wavefunctions read in

   number of l-projection  operators is LMAX  =           6
   number of lm-projection operators is LMMAX =          18

 POTCAR:    PAW_PBE Br 06Sep2000                  
   SHA256 =  96a73d2954943bbee26f4990d676cc6c3bf44b8dd2c75cd4b3b825d8403f0103 Br
   COPYR  = (c) Copyright 06Sep2000 Georg Kresse                                
   COPYR  = This file is part of the software VASP. Any use, copying, and all ot
   COPYR  = If you do not have a valid VASP license, you may not use, copy or di
   VRHFIN =Br: s2p5                                                             
   LEXCH  = PE                                                                  
   EATOM  =   368.4488 eV,   27.0802 Ry                                         
                                                                                
   TITEL  = PAW_PBE Br 06Sep2000                                                
   LULTRA =        F    use ultrasoft PP ?                                      
   IUNSCR =        1    unscreen: 0-lin 1-nonlin 2-no                           
   RPACOR =    1.900    partial core radius                                     
   POMASS =   79.904; ZVAL   =    7.000    mass and valenz                      
   RCORE  =    2.100    outmost cutoff radius                                   
   RWIGS  =    2.200; RWIGS  =    1.164    wigner-seitz radius (au A)           
   ENMAX  =  216.285; ENMIN  =  162.214 eV                                      
   ICORE  =        3    local potential                                         
   LCOR   =        T    correct aug charges                                     
   LPAW   =        T    paw PP                                                  
   EAUG   =  503.852                                                            
   DEXC   =    0.000                                                            
   RMAX   =    2.139    core radius for proj-oper                               
   RAUG   =    1.300    factor for augmentation sphere                          
   RDEP   =    2.186    radius for radial grids                                 
   RDEPT  =    1.890    core radius for aug-charge                              
                                                                                
   Atomic configuration                                                         
   10 entries                                                                   
     n  l   j            E        occ.                                          
     1  0  0.50    -13316.2796   2.0000                                         
     2  0  0.50     -1732.8239   2.0000                                         
     2  1  1.50     -1528.2193   6.0000                                         
     3  0  0.50      -238.0460   2.0000                                         
     3  1  1.50      -173.4609   6.0000                                         
     3  2  2.50       -66.7132  10.0000                                         
     4  0  0.50       -20.1334   2.0000                                         
     4  1  0.50        -7.8591   5.0000                                         
     4  2  2.50        -8.1635   0.0000                                         
     4  3  2.50        -8.1635   0.0000                                         
   Description                                                                  
     l       E           TYP  RCUT    TYP  RCUT                                 
     0    -20.1333652     23  2.100                                             
     0    -21.4939478     23  2.100                                             
     1     -7.8591052     23  2.100                                             
     1     -3.1608434     23  2.100                                             
     2     -8.1634956     23  2.100                                             
     3     -1.3605826      7  2.100                                             
  local pseudopotential read in
  partial core-charges read in
  partial kinetic energy density read in
  atomic valenz-charges read in
  non local Contribution for L=           0  read in
    real space projection operators read in
  non local Contribution for L=           0  read in
    real space projection operators read in
  non local Contribution for L=           1  read in
    real space projection operators read in
  non local Contribution for L=           1  read in
    real space projection operators read in
  non local Contribution for L=           2  read in
    real space projection operators read in
    PAW grid and wavefunctions read in

   number of l-projection  operators is LMAX  =           5
   number of lm-projection operators is LMMAX =          13

 Optimization of the real space projectors (new method)

 maximal supplied QI-value         = 15.12
 optimisation between [QCUT,QGAM] = [  8.77, 17.69] = [ 21.53, 87.61] Ry 
 Optimized for a Real-space Cutoff    1.85 Angstroem

   l    n(q)    QCUT    max X(q) W(low)/X(q) W(high)/X(q)  e(spline) 
   0     10     8.768    25.322    0.81E-04    0.51E-04    0.48E-06
   0     10     8.768    99.187    0.78E-04    0.50E-04    0.47E-06
   1      9     8.768    11.761    0.21E-03    0.20E-03    0.37E-06
   1      9     8.768     8.275    0.24E-03    0.22E-03    0.41E-06
   2      9     8.768     3.829    0.23E-04    0.15E-03    0.18E-06
 Optimization of the real space projectors (new method)

 maximal supplied QI-value         = 15.12
 optimisation between [QCUT,QGAM] = [  8.77, 17.69] = [ 21.53, 87.61] Ry 
 Optimized for a Real-space Cutoff    1.59 Angstroem

   l    n(q)    QCUT    max X(q) W(low)/X(q) W(high)/X(q)  e(spline) 
   2      7     8.768     3.846    0.48E-04    0.11E-03    0.11E-06
   2      7     8.768     8.593    0.20E-03    0.22E-04    0.24E-06
   0      8     8.768    20.082    0.68E-04    0.88E-04    0.41E-07
   0      8     8.768     8.597    0.89E-04    0.13E-03    0.59E-07
   1      8     8.768    33.223    0.15E-03    0.53E-04    0.87E-07
   1      8     8.768    15.899    0.14E-03    0.44E-04    0.78E-07
 Optimization of the real space projectors (new method)

 maximal supplied QI-value         = 17.95
 optimisation between [QCUT,QGAM] = [  8.80, 17.59] = [ 21.67, 86.68] Ry 
 Optimized for a Real-space Cutoff    1.59 Angstroem

   l    n(q)    QCUT    max X(q) W(low)/X(q) W(high)/X(q)  e(spline) 
   0      8     8.797   175.082    0.82E-04    0.14E-03    0.89E-07
   0      8     8.797   174.004    0.79E-04    0.14E-03    0.86E-07
   1      8     8.797    54.315    0.16E-03    0.14E-04    0.30E-06
   1      8     8.797    42.441    0.16E-03    0.14E-04    0.30E-06
   2      7     8.797     3.596    0.92E-04    0.15E-03    0.85E-07
  PAW_PBE Cs_sv 08Apr2002               :
 energy of atom  1       EATOM= -555.6835
 kinetic energy error for atom=    0.0069 (will be added to EATOM!!)
  PAW_PBE Pb_d 06Sep2000                :
 energy of atom  2       EATOM=-1661.6185
 kinetic energy error for atom=    0.0498 (will be added to EATOM!!)
  PAW_PBE Br 06Sep2000                  :
 energy of atom  3       EATOM= -368.4488
 kinetic energy error for atom=    0.0072 (will be added to EATOM!!)


 POSCAR: Cs8 Pb8 Br23                            
  positions in direct lattice
  No initial velocities read in

 METAGGA = SCAN     LMAXTAU =  6    LMIXTAU =  F

 exchange correlation table for  LEXCH =        8
   RHO(1)=    0.500       N(1)  =     2000
   RHO(2)=  100.500       N(2)  =     4000

 VTST: version 3.2, (02/03/18)

 CHAIN: initializing optimizer
 
 OPT: Using VASP Conjugate-Gradient optimizer
 CHAIN: Read ICHAIN            0

 POSCAR: Cs8 Pb8 Br23                            
  positions in direct lattice
  No initial velocities read in



--------------------------------------------------------------------------------------------------------


 ion  position               nearest neighbor table
   1  0.267  0.250  0.200-
   2  0.771  0.250  0.715-
   3  0.705  0.750  0.258-  39 2.81
   4  0.210  0.750  0.781-
   5  0.296  0.250  0.736-
   6  0.790  0.250  0.225-
   7  0.733  0.750  0.806-
   8  0.228  0.750  0.278-
   9  1.000  0.001  0.999-  18 2.97  20 2.98  29 3.00  31 3.00  28 3.01  34 3.02
  10  0.499  0.006  0.499-  19 2.93  33 2.97  27 2.99  32 3.00  30 3.02
  11  0.500  0.000  0.000-  21 2.97  17 2.98  29 2.99  31 3.00  27 3.01  33 3.03
  12  0.002  0.006  0.501-  22 2.93  34 2.99  28 2.99  32 3.00  30 3.01
  13  0.500  0.500  0.000-  21 2.97  17 2.98  35 2.99  23 3.00  37 3.01  25 3.03
  14  0.002  0.494  0.501-  22 2.93  26 2.99  38 2.99  24 3.00  36 3.01
  15  1.000  0.499  0.999-  18 2.97  20 2.98  35 3.00  23 3.00  38 3.01  26 3.02
  16  0.499  0.494  0.499-  19 2.93  25 2.97  37 2.99  24 3.00  36 3.02
  17  0.472  0.750  0.970-  11 2.98  13 2.98
  18  0.967  0.250  0.970-  15 2.97   9 2.97
  19  0.456  0.250  0.468-  10 2.93  16 2.93
  20  0.026  0.750  0.031-   9 2.98  15 2.98
  21  0.528  0.250  0.034-  13 2.97  11 2.97
  22  0.034  0.250  0.543-  12 2.93  14 2.93
  23  0.248  0.469  0.950-  13 3.00  15 3.00
  24  0.748  0.469  0.449-  16 3.00  14 3.00
  25  0.452  0.537  0.250-  16 2.97  13 3.03
  26  0.951  0.537  0.745-  14 2.99  15 3.02
  27  0.551  0.030  0.752-  10 2.99  11 3.01
  28  0.050  0.032  0.253-  12 2.99   9 3.01
  29  0.752  0.971  0.050-  11 2.99   9 3.00
  30  0.252  0.955  0.547-  12 3.01  10 3.02
  31  0.248  0.031  0.950-  11 3.00   9 3.00
  32  0.748  0.031  0.449-  10 3.00  12 3.00
  33  0.452  0.963  0.250-  10 2.97  11 3.03
  34  0.951  0.963  0.745-  12 2.99   9 3.02
  35  0.752  0.529  0.050-  13 2.99  15 3.00
  36  0.252  0.545  0.547-  14 3.01  16 3.02
  37  0.551  0.470  0.752-  16 2.99  13 3.01
  38  0.050  0.468  0.253-  14 2.99  15 3.01
  39  0.755  0.750  0.496-   3 2.81


IMPORTANT INFORMATION: All symmetrisations will be switched off!
NOSYMM: (Re-)initialisation of all symmetry stuff for point group C_1.



 KPOINTS: 1x1x1                                   

Automatic generation of k-mesh.
Space group operators:
 irot       det(A)        alpha          n_x          n_y          n_z        tau_x        tau_y        tau_z
    1     1.000000     0.000001     1.000000     0.000000     0.000000     0.000000     0.000000     0.000000
 
 Subroutine IBZKPT returns following result:
 ===========================================
 
 Found      8 irreducible k-points:
 
 Following reciprocal coordinates:
            Coordinates               Weight
  0.000000  0.000000  0.000000      1.000000
  0.500000  0.000000  0.000000      1.000000
  0.000000  0.500000  0.000000      1.000000
  0.500000  0.500000  0.000000      1.000000
  0.000000  0.000000  0.500000      1.000000
  0.500000  0.000000  0.500000      1.000000
  0.000000  0.500000  0.500000      1.000000
  0.500000  0.500000  0.500000      1.000000
 
 Following cartesian coordinates:
            Coordinates               Weight
 -0.000000  0.000000  0.000000      1.000000
  0.029563  0.000000  0.031093      1.000000
 -0.000000  0.042626  0.000000      1.000000
  0.029563  0.042626  0.031093      1.000000
 -0.029563  0.000000  0.031093      1.000000
  0.000000  0.000000  0.062187      1.000000
 -0.029563  0.042626  0.031093      1.000000
  0.000000  0.042626  0.062187      1.000000
 


--------------------------------------------------------------------------------------------------------




 Dimension of arrays:
   k-points           NKPTS =      8   k-points in BZ     NKDIM =      8   number of bands    NBANDS=    208
   number of dos      NEDOS =    301   number of ions     NIONS =     39
   non local maximal  LDIM  =      6   non local SUM 2l+1 LMDIM =     18
   total plane-waves  NPLWV = 343000
   max r-space proj   IRMAX =   5734   max aug-charges    IRDMAX=  91523
   dimension x,y,z NGX =    70 NGY =   70 NGZ =   70
   dimension x,y,z NGXF=   140 NGYF=  140 NGZF=  140
   support grid    NGXF=   280 NGYF=  280 NGZF=  280
   ions per type =               8   8  23
   NGX,Y,Z   is equivalent  to a cutoff of   9.97,  9.92,  9.97 a.u.
   NGXF,Y,Z  is equivalent  to a cutoff of  19.95, 19.84, 19.95 a.u.

 SYSTEM =  CsPbBr3 cubic bulk                      
 POSCAR =  Cs8 Pb8 Br23                            

 Startparameter for this run:
   NWRITE =      2    write-flag & timer
   PREC   = accura    normal or accurate (medium, high low for compatibility)
   ISTART =      0    job   : 0-new  1-cont  2-samecut
   ICHARG =      2    charge: 1-file 2-atom 10-const
   ISPIN  =      1    spin polarized calculation?
   LNONCOLLINEAR =      F non collinear calculations
   LSORBIT =      F    spin-orbit coupling
   INIWAV =      1    electr: 0-lowe 1-rand  2-diag
   LASPH  =      T    aspherical Exc in radial PAW
   METAGGA=      F    non-selfconsistent MetaGGA calc.

 Electronic Relaxation 1
   ENCUT  =  300.0 eV  22.05 Ry    4.70 a.u.  16.48 16.57 16.48*2*pi/ulx,y,z
   ENINI  =  300.0     initial cutoff
   ENAUG  =  503.9 eV  augmentation charge cutoff
   NELM   =    200;   NELMIN=  2; NELMDL= -5     # of ELM steps 
   EDIFF  = 0.1E-05   stopping-criterion for ELM
   LREAL  =      T    real-space projection
   NLSPLINE    = F    spline interpolate recip. space projectors
   LCOMPAT=      F    compatible to vasp.4.4
   GGA_COMPAT  = T    GGA compatible to vasp.4.4-vasp.4.6
   LMAXPAW     = -100 max onsite density
   LMAXMIX     =    2 max onsite mixed and CHGCAR
   VOSKOWN=      0    Vosko Wilk Nusair interpolation
   ROPT   =   -0.00025  -0.00025  -0.00025
 Ionic relaxation
   EDIFFG = -.1E-01   stopping-criterion for IOM
   NSW    =      0    number of steps for IOM
   NBLOCK =      1;   KBLOCK =      1    inner block; outer block 
   IBRION =     -1    ionic relax: 0-MD 1-quasi-New 2-CG
   NFREE  =      1    steps in history (QN), initial steepest desc. (CG)
   ISIF   =      2    stress and relaxation
   IWAVPR =     10    prediction:  0-non 1-charg 2-wave 3-comb
   ISYM   =      0    0-nonsym 1-usesym 2-fastsym
   LCORR  =      T    Harris-Foulkes like correction to forces

   POTIM  = 0.5000    time-step for ionic-motion
   TEIN   =    0.0    initial temperature
   TEBEG  =    0.0;   TEEND  =   0.0 temperature during run
   SMASS  =  -3.00    Nose mass-parameter (am)
   estimated Nose-frequenzy (Omega)   =  0.10E-29 period in steps =****** mass=  -0.311E-26a.u.
   SCALEE = 1.0000    scale energy and forces
   NPACO  =    256;   APACO  = 16.0  distance and # of slots for P.C.
   PSTRESS=    0.0 pullay stress

  Mass of Ions in am
   POMASS = 132.90207.20 79.90
  Ionic Valenz
   ZVAL   =   9.00 14.00  7.00
  Atomic Wigner-Seitz radii
   RWIGS  =  -1.00 -1.00 -1.00
  virtual crystal weights 
   VCA    =   1.00  1.00  1.00
   NELECT =     344.0000    total number of electrons
   NUPDOWN=       0.0000    fix difference up-down

 DOS related values:
   EMIN   =  10.00;   EMAX   =-10.00  energy-range for DOS
   EFERMI =   0.00
   ISMEAR =     0;   SIGMA  =   0.01  broadening in eV -4-tet -1-fermi 0-gaus

 Electronic relaxation 2 (details)
   IALGO  =     38    algorithm
   LDIAG  =      T    sub-space diagonalisation (order eigenvalues)
   LSUBROT=      F    optimize rotation matrix (better conditioning)
   TURBO    =      0    0=normal 1=particle mesh
   IRESTART =      0    0=no restart 2=restart with 2 vectors
   NREBOOT  =      0    no. of reboots
   NMIN     =      0    reboot dimension
   EREF     =   0.00    reference energy to select bands
   IMIX   =      4    mixing-type and parameters
     AMIX     =   0.40;   BMIX     =  1.00
     AMIX_MAG =   1.60;   BMIX_MAG =  1.00
     AMIN     =   0.10
     WC   =   100.;   INIMIX=   1;  MIXPRE=   1;  MAXMIX= -45

 Intra band minimization:
   WEIMIN = 0.0000     energy-eigenvalue tresh-hold
   EBREAK =  0.12E-08  absolut break condition
   DEPER  =   0.30     relativ break condition  

   TIME   =   0.40     timestep for ELM

  volume/ion in A,a.u.               =      40.90       276.00
  Fermi-wavevector in a.u.,A,eV,Ry     =   0.981747  1.855232 13.113654  0.963826
  Thomas-Fermi vector in A             =   2.112777

 Write flags
   LWAVE        =      F    write WAVECAR
   LDOWNSAMPLE  =      F    k-point downsampling of WAVECAR
   LCHARG       =      F    write CHGCAR
   LVTOT        =      F    write LOCPOT, total local potential
   LVHAR        =      T    write LOCPOT, Hartree potential only
   LELF         =      F    write electronic localiz. function (ELF)
   LORBIT       =     10    0 simple, 1 ext, 2 COOP (PROOUT), +10 PAW based schemes


 Dipole corrections
   LMONO  =      F    monopole corrections only (constant potential shift)
   LDIPOL =      F    correct potential (dipole corrections)
   IDIPOL =      0    1-x, 2-y, 3-z, 4-all directions 
   EPSILON=  1.0000000 bulk dielectric constant

 Exchange correlation treatment:
   GGA     =    --    GGA type
   LEXCH   =     8    internal setting for exchange type
   VOSKOWN=      0    Vosko Wilk Nusair interpolation
   LHFCALC =     F    Hartree Fock is set to
   LHFONE  =     F    Hartree Fock one center treatment
   AEXX    =    0.0000 exact exchange contribution

 Linear response parameters
   LEPSILON=     F    determine dielectric tensor
   LRPA    =     F    only Hartree local field effects (RPA)
   LNABLA  =     F    use nabla operator in PAW spheres
   LVEL    =     F    velocity operator in full k-point grid
   LINTERFAST=   F  fast interpolation
   KINTER  =     0    interpolate to denser k-point grid
   CSHIFT  =0.1000    complex shift for real part using Kramers Kronig
   OMEGAMAX=  -1.0    maximum frequency
   DEG_THRESHOLD= 0.2000000E-02 threshold for treating states as degnerate
   RTIME   =   -0.100 relaxation time in fs
  (WPLASMAI=    0.000 imaginary part of plasma frequency in eV, 0.658/RTIME)
   DFIELD  = 0.0000000 0.0000000 0.0000000 field for delta impulse in time

 Orbital magnetization related:
   ORBITALMAG=     F  switch on orbital magnetization
   LCHIMAG   =     F  perturbation theory with respect to B field
   DQ        =  0.001000  dq finite difference perturbation B field
   LLRAUG    =     F  two centre corrections for induced B field



--------------------------------------------------------------------------------------------------------


 Static calculation
 charge density and potential will be updated during run
 non-spin polarized calculation
 Variant of blocked Davidson
 Davidson routine will perform the subspace rotation
 perform sub-space diagonalisation
    after iterative eigenvector-optimisation
 modified Broyden-mixing scheme, WC =      100.0
 initial mixing is a Kerker type mixing with AMIX =  0.4000 and BMIX =      1.0000
 Hartree-type preconditioning will be used
 using additional bands           36
 real space projection scheme for non local part
 use partial core corrections
 calculate Harris-corrections to forces   (improved forces if not selfconsistent)
 use gradient corrections 
 use of overlap-Matrix (Vanderbilt PP)
 Gauss-broadening in eV      SIGMA  =   0.01


--------------------------------------------------------------------------------------------------------


  energy-cutoff  :      300.00
  volume of cell :     1595.09
      direct lattice vectors                 reciprocal lattice vectors
     8.456489000  0.000000000  8.040301000     0.059126193 -0.000000000  0.062186727
     0.000000000 11.729847000  0.000000000     0.000000000  0.085252604 -0.000000000
    -8.456489000  0.000000000  8.040301000    -0.059126193  0.000000000  0.062186727

  length of vectors
    11.668703715 11.729847000 11.668703715     0.085808482  0.085252604  0.085808482



 k-points in units of 2pi/SCALE and weight: 1x1x1                                   
  -0.00000000  0.00000000  0.00000000       0.125
   0.02956310  0.00000000  0.03109336       0.125
  -0.00000000  0.04262630  0.00000000       0.125
   0.02956310  0.04262630  0.03109336       0.125
  -0.02956310  0.00000000  0.03109336       0.125
   0.00000000  0.00000000  0.06218673       0.125
  -0.02956310  0.04262630  0.03109336       0.125
   0.00000000  0.04262630  0.06218673       0.125

 k-points in reciprocal lattice and weights: 1x1x1                                   
   0.00000000  0.00000000  0.00000000       0.125
   0.50000000  0.00000000  0.00000000       0.125
   0.00000000  0.50000000  0.00000000       0.125
   0.50000000  0.50000000  0.00000000       0.125
   0.00000000  0.00000000  0.50000000       0.125
   0.50000000  0.00000000  0.50000000       0.125
   0.00000000  0.50000000  0.50000000       0.125
   0.50000000  0.50000000  0.50000000       0.125

 position of ions in fractional coordinates (direct lattice) 
   0.26709900  0.25000000  0.19969400
   0.77110800  0.25000000  0.71506600
   0.70479200  0.75000000  0.25802000
   0.21019700  0.75000000  0.78109800
   0.29564800  0.25000000  0.73633300
   0.78992800  0.25000000  0.22537300
   0.73253000  0.75000000  0.80631900
   0.22808800  0.75000000  0.27848600
   0.99980100  0.00068100  0.99919000
   0.49919800  0.00558500  0.49915200
   0.49994400  0.00044700  0.00022000
   0.00156200  0.00577700  0.50077600
   0.49994400  0.49955300  0.00022100
   0.00156200  0.49422300  0.50077600
   0.99980100  0.49931800  0.99919000
   0.49919800  0.49441500  0.49915200
   0.47171100  0.75000000  0.96993700
   0.96692200  0.25000000  0.96969100
   0.45557100  0.25000000  0.46827200
   0.02591000  0.75000000  0.03073100
   0.52843400  0.25000000  0.03422400
   0.03372400  0.25000000  0.54308500
   0.24758400  0.46850100  0.94979400
   0.74790200  0.46911300  0.44927100
   0.45203300  0.53710600  0.25039400
   0.95108900  0.53744900  0.74525900
   0.55100000  0.03027600  0.75151300
   0.04970500  0.03231100  0.25321200
   0.75234100  0.97063000  0.05000700
   0.25222700  0.95461000  0.54665500
   0.24758400  0.03149800  0.94979400
   0.74790200  0.03088700  0.44927100
   0.45203300  0.96289400  0.25039400
   0.95108900  0.96255100  0.74525900
   0.75234100  0.52937000  0.05000700
   0.25222700  0.54539000  0.54665500
   0.55100000  0.46972400  0.75151300
   0.04970500  0.46768900  0.25321200
   0.75477900  0.75000000  0.49623700

 position of ions in cartesian coordinates  (Angst):
   0.57000964  2.93246175  3.75315622
   0.47391856  2.93246175 11.94928630
   3.77812250  8.79738525  7.74129829
  -4.82781803  8.79738525  7.97031018
  -3.72664785  2.93246175  8.29743787
   4.77415315  2.93246175  8.16332565
  -0.62399587  8.79738525 12.37280915
  -0.42619013  8.79738525  4.07300744
   0.00516691  0.00798803 16.07248934
   0.00038900  0.06551120  8.02703450
   4.22591051  0.00524324  4.02146911
  -4.22159770  0.06776333  4.03894872
   4.22590205  5.85968026  4.02147715
  -4.22159770  5.79716017  4.03894872
   0.00516691  5.85692374 16.07248934
   0.00038900  5.79941230  8.02703450
  -4.21324269  8.79738525 11.59128386
  -0.02341602  2.93246175 15.57095144
  -0.10740587  2.93246175  7.42797580
  -0.04076873  8.79738525  0.45541069
   4.17928143  2.93246175  4.52393968
  -4.30740569  2.93246175  4.63771798
  -5.93823114  5.49544505  9.62727953
   2.52536977  5.50262372  9.62563127
   1.70515799  6.30017120  5.64772451
   1.74059913  6.30419454 13.63914852
  -1.69563598  0.35513285 10.47259658
  -1.72095471  0.37900309  2.43554386
   5.93927975 11.38534139  6.45111943
  -2.48982714 11.19742924  6.42325174
  -5.93823114  0.36946672  9.62727953
   2.52536977  0.36229978  9.62563127
   1.70515799 11.29459930  5.64772451
   1.74059913 11.29057596 13.63914852
   5.93927975  6.20942911  6.45111943
  -2.48982714  6.39734126  6.42325174
  -1.69563598  5.50979065 10.47259658
  -1.72095471  5.48592041  2.43554386
   2.18635758  8.79738525 10.05854520



--------------------------------------------------------------------------------------------------------


 k-point  1 :   0.0000 0.0000 0.0000  plane waves:   18809
 k-point  2 :   0.5000 0.0000 0.0000  plane waves:   18808
 k-point  3 :   0.0000 0.5000 0.0000  plane waves:   18794
 k-point  4 :   0.5000 0.5000 0.0000  plane waves:   18804
 k-point  5 :   0.0000 0.0000 0.5000  plane waves:   18808
 k-point  6 :   0.5000 0.0000 0.5000  plane waves:   18790
 k-point  7 :   0.0000 0.5000 0.5000  plane waves:   18804
 k-point  8 :   0.5000 0.5000 0.5000  plane waves:   18800

 maximum and minimum number of plane-waves per node :      2389     2304

 maximum number of plane-waves:     18809
 maximum index in each direction: 
   IXMAX=   16   IYMAX=   16   IZMAX=   16
   IXMIN=  -16   IYMIN=  -17   IZMIN=  -16


 real space projection operators:
  total allocation   :      16714.88 KBytes
  max/ min on nodes  :       2183.11       1836.09


 parallel 3D FFT for wavefunctions:
    minimum data exchange during FFTs selected (reduces bandwidth)
 parallel 3D FFT for charge:
    minimum data exchange during FFTs selected (reduces bandwidth)


 total amount of memory used by VASP MPI-rank0    60647. kBytes
=======================================================================

   base      :      30000. kBytes
   nonlr-proj:       6482. kBytes
   fftplans  :       8423. kBytes
   grid      :       7465. kBytes
   one-center:         77. kBytes
   wavefun   :       8200. kBytes

     INWAV:  cpu time    0.0000: real time    0.0000
 Broyden mixing: mesh for mixing (old mesh)
   NGX = 33   NGY = 33   NGZ = 33
  (NGX  =140   NGY  =140   NGZ  =140)
  gives a total of  35937 points

 initial charge density was supplied:
 charge density of overlapping atoms calculated
 number of electron     345.0000000 magnetization 
 keeping initial charge density in first step


--------------------------------------------------------------------------------------------------------


 Maximum index for non-local projection operator          726
 Maximum index for augmentation-charges         3007 (set IRDMAX)


--------------------------------------------------------------------------------------------------------


 First call to EWALD:  gamma=   0.152
 Maximum number of real-space cells 3x 3x 3
 Maximum number of reciprocal cells 3x 3x 3

    FEWALD:  cpu time    0.0037: real time    0.0037


--------------------------------------- Iteration      1(   1)  ---------------------------------------


    POTLOK:  cpu time    0.2568: real time    0.2777
    SETDIJ:  cpu time    1.1990: real time    1.1990
     EDDAV:  cpu time   16.5517: real time   16.5573
       DOS:  cpu time    0.0007: real time    0.0007
    --------------------------------------------
      LOOP:  cpu time   18.0082: real time   18.0347

 eigenvalue-minimisations  :  3472
 total energy-change (2. order) : 0.1334265E+04  (-0.1105246E+05)
 number of electron     345.0000000 magnetization 
 augmentation part      345.0000000 magnetization 

 Free energy of the ion-electron system (eV)
  ---------------------------------------------------
  alpha Z        PSCENC =       872.70583573
  Ewald energy   TEWEN  =    -17988.26975244
  -Hartree energ DENC   =     -7368.92341471
  -exchange      EXHF   =         0.00000000
  -V(xc)+E(xc)   XCENC  =       907.91013635
  PAW double counting   =     21345.28103884   -22405.85761495
  entropy T*S    EENTRO =        -0.00017566
  eigenvalues    EBANDS =      -240.70006243
  atomic energy  EATOM  =     26212.11861568
  Solvation  Ediel_sol  =         0.00000000
  ---------------------------------------------------
  free energy    TOTEN  =      1334.26460641 eV

  energy without entropy =     1334.26478207  energy(sigma->0) =     1334.26469424


--------------------------------------------------------------------------------------------------------




--------------------------------------- Iteration      1(   2)  ---------------------------------------


     EDDAV:  cpu time   18.4528: real time   18.4857
       DOS:  cpu time    0.0006: real time    0.0006
    --------------------------------------------
      LOOP:  cpu time   18.4534: real time   18.4863

 eigenvalue-minimisations  :  4112
 total energy-change (2. order) :-0.2449525E+04  (-0.2367461E+04)
 number of electron     345.0000000 magnetization 
 augmentation part      345.0000000 magnetization 

 Free energy of the ion-electron system (eV)
  ---------------------------------------------------
  alpha Z        PSCENC =       872.70583573
  Ewald energy   TEWEN  =    -17988.26975244
  -Hartree energ DENC   =     -7368.92341471
  -exchange      EXHF   =         0.00000000
  -V(xc)+E(xc)   XCENC  =       907.91013635
  PAW double counting   =     21345.28103884   -22405.85761495
  entropy T*S    EENTRO =        -0.00000000
  eigenvalues    EBANDS =     -2690.22497477
  atomic energy  EATOM  =     26212.11861568
  Solvation  Ediel_sol  =         0.00000000
  ---------------------------------------------------
  free energy    TOTEN  =     -1115.26013027 eV

  energy without entropy =    -1115.26013027  energy(sigma->0) =    -1115.26013027


--------------------------------------------------------------------------------------------------------




--------------------------------------- Iteration      1(   3)  ---------------------------------------


     EDDAV:  cpu time   19.3517: real time   19.4123
       DOS:  cpu time    0.0004: real time    0.0004
    --------------------------------------------
      LOOP:  cpu time   19.3521: real time   19.4127

 eigenvalue-minimisations  :  4440
 total energy-change (2. order) :-0.3591651E+03  (-0.3572090E+03)
 number of electron     345.0000000 magnetization 
 augmentation part      345.0000000 magnetization 

 Free energy of the ion-electron system (eV)
  ---------------------------------------------------
  alpha Z        PSCENC =       872.70583573
  Ewald energy   TEWEN  =    -17988.26975244
  -Hartree energ DENC   =     -7368.92341471
  -exchange      EXHF   =         0.00000000
  -V(xc)+E(xc)   XCENC  =       907.91013635
  PAW double counting   =     21345.28103884   -22405.85761495
  entropy T*S    EENTRO =        -0.00000000
  eigenvalues    EBANDS =     -3049.39010018
  atomic energy  EATOM  =     26212.11861568
  Solvation  Ediel_sol  =         0.00000000
  ---------------------------------------------------
  free energy    TOTEN  =     -1474.42525569 eV

  energy without entropy =    -1474.42525569  energy(sigma->0) =    -1474.42525569


--------------------------------------------------------------------------------------------------------




--------------------------------------- Iteration      1(   4)  ---------------------------------------


     EDDAV:  cpu time   17.9790: real time   18.0096
       DOS:  cpu time    0.0004: real time    0.0004
    --------------------------------------------
      LOOP:  cpu time   17.9794: real time   18.0099

 eigenvalue-minimisations  :  3952
 total energy-change (2. order) :-0.1179198E+02  (-0.1175871E+02)
 number of electron     345.0000000 magnetization 
 augmentation part      345.0000000 magnetization 

 Free energy of the ion-electron system (eV)
  ---------------------------------------------------
  alpha Z        PSCENC =       872.70583573
  Ewald energy   TEWEN  =    -17988.26975244
  -Hartree energ DENC   =     -7368.92341471
  -exchange      EXHF   =         0.00000000
  -V(xc)+E(xc)   XCENC  =       907.91013635
  PAW double counting   =     21345.28103884   -22405.85761495
  entropy T*S    EENTRO =        -0.00000000
  eigenvalues    EBANDS =     -3061.18208200
  atomic energy  EATOM  =     26212.11861568
  Solvation  Ediel_sol  =         0.00000000
  ---------------------------------------------------
  free energy    TOTEN  =     -1486.21723750 eV

  energy without entropy =    -1486.21723750  energy(sigma->0) =    -1486.21723750


--------------------------------------------------------------------------------------------------------




--------------------------------------- Iteration      1(   5)  ---------------------------------------


     EDDAV:  cpu time   19.1396: real time   19.1962
       DOS:  cpu time    0.0005: real time    0.0005
    CHARGE:  cpu time    2.7344: real time    2.7345
    MIXING:  cpu time    0.0015: real time    0.0015
    --------------------------------------------
      LOOP:  cpu time   21.8760: real time   21.9327

 eigenvalue-minimisations  :  4368
 total energy-change (2. order) :-0.5276730E+00  (-0.5274303E+00)
 number of electron     343.9999997 magnetization 
 augmentation part       -5.0499991 magnetization 

 Broyden mixing:
  rms(total) = 0.10282E+01    rms(broyden)= 0.10276E+01
  rms(prec ) = 0.14546E+01
  weight for this iteration     100.00

 Free energy of the ion-electron system (eV)
  ---------------------------------------------------
  alpha Z        PSCENC =       872.70583573
  Ewald energy   TEWEN  =    -17988.26975244
  -Hartree energ DENC   =     -7368.92341471
  -exchange      EXHF   =         0.00000000
  -V(xc)+E(xc)   XCENC  =       907.91013635
  PAW double counting   =     21345.28103884   -22405.85761495
  entropy T*S    EENTRO =        -0.00000000
  eigenvalues    EBANDS =     -3061.70975504
  atomic energy  EATOM  =     26212.11861568
  Solvation  Ediel_sol  =         0.00000000
  ---------------------------------------------------
  free energy    TOTEN  =     -1486.74491054 eV

  energy without entropy =    -1486.74491054  energy(sigma->0) =    -1486.74491054


--------------------------------------------------------------------------------------------------------




--------------------------------------- Iteration      1(   6)  ---------------------------------------


    POTLOK:  cpu time    0.2778: real time    0.3185
    SETDIJ:  cpu time    1.1973: real time    1.1973
     EDDAV:  cpu time   18.9219: real time   18.9227
       DOS:  cpu time    0.0004: real time    0.0004
    CHARGE:  cpu time    2.7111: real time    2.7112
    MIXING:  cpu time    0.0016: real time    0.0016
    --------------------------------------------
      LOOP:  cpu time   23.1101: real time   23.1518

 eigenvalue-minimisations  :  4280
 total energy-change (2. order) : 0.7849701E+02  (-0.2407847E+01)
 number of electron     343.9999997 magnetization 
 augmentation part       -3.6213532 magnetization 

 Broyden mixing:
  rms(total) = 0.73093E+00    rms(broyden)= 0.73085E+00
  rms(prec ) = 0.93812E+00
  weight for this iteration     100.00

 eigenvalues of (default mixing * dielectric matrix)
  average eigenvalue GAMMA=   1.1913
  1.1913

 Free energy of the ion-electron system (eV)
  ---------------------------------------------------
  alpha Z        PSCENC =       872.70583573
  Ewald energy   TEWEN  =    -17988.26975244
  -Hartree energ DENC   =     -7348.98909075
  -exchange      EXHF   =         0.00000000
  -V(xc)+E(xc)   XCENC  =       935.88000949
  PAW double counting   =     21613.98311766   -22672.22042283
  entropy T*S    EENTRO =        -0.00000000
  eigenvalues    EBANDS =     -3033.45621632
  atomic energy  EATOM  =     26212.11861568
  Solvation  Ediel_sol  =         0.00000000
  ---------------------------------------------------
  free energy    TOTEN  =     -1408.24790378 eV

  energy without entropy =    -1408.24790378  energy(sigma->0) =    -1408.24790378


--------------------------------------------------------------------------------------------------------




--------------------------------------- Iteration      1(   7)  ---------------------------------------


    POTLOK:  cpu time    0.3031: real time    0.3145
    SETDIJ:  cpu time    1.1949: real time    1.1949
     EDDAV:  cpu time   18.1381: real time   18.1391
       DOS:  cpu time    0.0004: real time    0.0004
    CHARGE:  cpu time    2.7127: real time    2.7128
    MIXING:  cpu time    0.0015: real time    0.0015
    --------------------------------------------
      LOOP:  cpu time   22.3506: real time   22.3631

 eigenvalue-minimisations  :  4016
 total energy-change (2. order) : 0.7194328E+00  (-0.9633470E+00)
 number of electron     343.9999997 magnetization 
 augmentation part       -3.0489359 magnetization 

 Broyden mixing:
  rms(total) = 0.37471E+00    rms(broyden)= 0.37469E+00
  rms(prec ) = 0.42638E+00
  weight for this iteration     100.00

 eigenvalues of (default mixing * dielectric matrix)
  average eigenvalue GAMMA=   1.2978
  1.2978  1.2978

 Free energy of the ion-electron system (eV)
  ---------------------------------------------------
  alpha Z        PSCENC =       872.70583573
  Ewald energy   TEWEN  =    -17988.26975244
  -Hartree energ DENC   =     -7390.57713797
  -exchange      EXHF   =         0.00000000
  -V(xc)+E(xc)   XCENC  =       941.12642344
  PAW double counting   =     22225.08136858   -23280.78124448
  entropy T*S    EENTRO =        -0.00000000
  eigenvalues    EBANDS =     -2998.93257946
  atomic energy  EATOM  =     26212.11861568
  Solvation  Ediel_sol  =         0.00000000
  ---------------------------------------------------
  free energy    TOTEN  =     -1407.52847094 eV

  energy without entropy =    -1407.52847094  energy(sigma->0) =    -1407.52847094


--------------------------------------------------------------------------------------------------------




--------------------------------------- Iteration      1(   8)  ---------------------------------------


    POTLOK:  cpu time    0.2812: real time    0.3171
    SETDIJ:  cpu time    1.1967: real time    1.1967
     EDDAV:  cpu time   17.9199: real time   17.9207
       DOS:  cpu time    0.0004: real time    0.0004
    CHARGE:  cpu time    2.7165: real time    2.7166
    MIXING:  cpu time    0.0016: real time    0.0016
    --------------------------------------------
      LOOP:  cpu time   22.1162: real time   22.1531

 eigenvalue-minimisations  :  3936
 total energy-change (2. order) :-0.1766183E+00  (-0.6332941E-01)
 number of electron     343.9999997 magnetization 
 augmentation part       -3.1554187 magnetization 

 Broyden mixing:
  rms(total) = 0.22359E+00    rms(broyden)= 0.22358E+00
  rms(prec ) = 0.26101E+00
  weight for this iteration     100.00

 eigenvalues of (default mixing * dielectric matrix)
  average eigenvalue GAMMA=   1.6772
  1.1240  1.3544  2.5532

 Free energy of the ion-electron system (eV)
  ---------------------------------------------------
  alpha Z        PSCENC =       872.70583573
  Ewald energy   TEWEN  =    -17988.26975244
  -Hartree energ DENC   =     -7394.48329237
  -exchange      EXHF   =         0.00000000
  -V(xc)+E(xc)   XCENC  =       941.68387740
  PAW double counting   =     22450.41307484   -23506.32845649
  entropy T*S    EENTRO =        -0.00000000
  eigenvalues    EBANDS =     -2995.54499156
  atomic energy  EATOM  =     26212.11861568
  Solvation  Ediel_sol  =         0.00000000
  ---------------------------------------------------
  free energy    TOTEN  =     -1407.70508921 eV

  energy without entropy =    -1407.70508921  energy(sigma->0) =    -1407.70508921


--------------------------------------------------------------------------------------------------------




--------------------------------------- Iteration      1(   9)  ---------------------------------------


    POTLOK:  cpu time    0.2922: real time    0.3142
    SETDIJ:  cpu time    1.1956: real time    1.1957
     EDDAV:  cpu time   17.3738: real time   17.3746
       DOS:  cpu time    0.0004: real time    0.0004
    CHARGE:  cpu time    2.7097: real time    2.7098
    MIXING:  cpu time    0.0016: real time    0.0016
    --------------------------------------------
      LOOP:  cpu time   21.5732: real time   21.5962

 eigenvalue-minimisations  :  3744
 total energy-change (2. order) :-0.4258828E-01  (-0.2163917E-01)
 number of electron     343.9999997 magnetization 
 augmentation part       -3.1972335 magnetization 

 Broyden mixing:
  rms(total) = 0.49006E-01    rms(broyden)= 0.49002E-01
  rms(prec ) = 0.61633E-01
  weight for this iteration     100.00

 eigenvalues of (default mixing * dielectric matrix)
  average eigenvalue GAMMA=   1.4623
  2.5117  1.2527  1.2527  0.8320

 Free energy of the ion-electron system (eV)
  ---------------------------------------------------
  alpha Z        PSCENC =       872.70583573
  Ewald energy   TEWEN  =    -17988.26975244
  -Hartree energ DENC   =     -7400.08196304
  -exchange      EXHF   =         0.00000000
  -V(xc)+E(xc)   XCENC  =       943.49747412
  PAW double counting   =     22769.80741224   -23826.51316729
  entropy T*S    EENTRO =        -0.00000000
  eigenvalues    EBANDS =     -2991.01213247
  atomic energy  EATOM  =     26212.11861568
  Solvation  Ediel_sol  =         0.00000000
  ---------------------------------------------------
  free energy    TOTEN  =     -1407.74767748 eV

  energy without entropy =    -1407.74767748  energy(sigma->0) =    -1407.74767748


--------------------------------------------------------------------------------------------------------




--------------------------------------- Iteration      1(  10)  ---------------------------------------


    POTLOK:  cpu time    0.2639: real time    0.3143
    SETDIJ:  cpu time    1.1958: real time    1.1958
     EDDAV:  cpu time   19.0786: real time   19.0794
       DOS:  cpu time    0.0004: real time    0.0004
    CHARGE:  cpu time    2.7154: real time    2.7155
    MIXING:  cpu time    0.0017: real time    0.0017
    --------------------------------------------
      LOOP:  cpu time   23.2556: real time   23.3070

 eigenvalue-minimisations  :  4336
 total energy-change (2. order) :-0.5206554E-02  (-0.3713074E-02)
 number of electron     343.9999997 magnetization 
 augmentation part       -3.1860713 magnetization 

 Broyden mixing:
  rms(total) = 0.36144E-01    rms(broyden)= 0.36142E-01
  rms(prec ) = 0.46976E-01
  weight for this iteration     100.00

 eigenvalues of (default mixing * dielectric matrix)
  average eigenvalue GAMMA=   1.3111
  2.4074  1.3241  1.3241  0.7499  0.7499

 Free energy of the ion-electron system (eV)
  ---------------------------------------------------
  alpha Z        PSCENC =       872.70583573
  Ewald energy   TEWEN  =    -17988.26975244
  -Hartree energ DENC   =     -7398.61969283
  -exchange      EXHF   =         0.00000000
  -V(xc)+E(xc)   XCENC  =       943.40268579
  PAW double counting   =     22745.84866969   -23802.67274758
  entropy T*S    EENTRO =        -0.00000000
  eigenvalues    EBANDS =     -2992.26649807
  atomic energy  EATOM  =     26212.11861568
  Solvation  Ediel_sol  =         0.00000000
  ---------------------------------------------------
  free energy    TOTEN  =     -1407.75288404 eV

  energy without entropy =    -1407.75288404  energy(sigma->0) =    -1407.75288404


--------------------------------------------------------------------------------------------------------




--------------------------------------- Iteration      1(  11)  ---------------------------------------


    POTLOK:  cpu time    0.2755: real time    0.3221
    SETDIJ:  cpu time    1.1969: real time    1.1970
     EDDAV:  cpu time   17.0426: real time   17.0434
       DOS:  cpu time    0.0004: real time    0.0004
    CHARGE:  cpu time    2.7135: real time    2.7136
    MIXING:  cpu time    0.0017: real time    0.0017
    --------------------------------------------
      LOOP:  cpu time   21.2305: real time   21.2782

 eigenvalue-minimisations  :  3624
 total energy-change (2. order) :-0.1855696E-02  (-0.4393222E-03)
 number of electron     343.9999997 magnetization 
 augmentation part       -3.1846578 magnetization 

 Broyden mixing:
  rms(total) = 0.15245E-01    rms(broyden)= 0.15245E-01
  rms(prec ) = 0.25429E-01
  weight for this iteration     100.00

 eigenvalues of (default mixing * dielectric matrix)
  average eigenvalue GAMMA=   1.6263
  2.8309  2.8309  1.2123  1.2123  0.8357  0.8357

 Free energy of the ion-electron system (eV)
  ---------------------------------------------------
  alpha Z        PSCENC =       872.70583573
  Ewald energy   TEWEN  =    -17988.26975244
  -Hartree energ DENC   =     -7397.02734549
  -exchange      EXHF   =         0.00000000
  -V(xc)+E(xc)   XCENC  =       943.30548435
  PAW double counting   =     22724.34801871   -23781.44236366
  entropy T*S    EENTRO =        -0.00000000
  eigenvalues    EBANDS =     -2993.49323262
  atomic energy  EATOM  =     26212.11861568
  Solvation  Ediel_sol  =         0.00000000
  ---------------------------------------------------
  free energy    TOTEN  =     -1407.75473973 eV

  energy without entropy =    -1407.75473973  energy(sigma->0) =    -1407.75473973


--------------------------------------------------------------------------------------------------------




--------------------------------------- Iteration      1(  12)  ---------------------------------------


    POTLOK:  cpu time    0.2696: real time    0.3149
    SETDIJ:  cpu time    1.1987: real time    1.1988
     EDDAV:  cpu time   16.7990: real time   16.7999
       DOS:  cpu time    0.0005: real time    0.0005
    CHARGE:  cpu time    2.7087: real time    2.7088
    MIXING:  cpu time    0.0017: real time    0.0017
    --------------------------------------------
      LOOP:  cpu time   20.9782: real time   21.0246

 eigenvalue-minimisations  :  3544
 total energy-change (2. order) :-0.2457330E-02  (-0.7972599E-03)
 number of electron     343.9999997 magnetization 
 augmentation part       -3.1886693 magnetization 

 Broyden mixing:
  rms(total) = 0.12947E-01    rms(broyden)= 0.12946E-01
  rms(prec ) = 0.15849E-01
  weight for this iteration     100.00

 eigenvalues of (default mixing * dielectric matrix)
  average eigenvalue GAMMA=   1.6194
  2.8872  2.8872  1.3479  1.3479  0.9071  0.9792  0.9792

 Free energy of the ion-electron system (eV)
  ---------------------------------------------------
  alpha Z        PSCENC =       872.70583573
  Ewald energy   TEWEN  =    -17988.26975244
  -Hartree energ DENC   =     -7396.01690305
  -exchange      EXHF   =         0.00000000
  -V(xc)+E(xc)   XCENC  =       943.30180178
  PAW double counting   =     22714.85384173   -23772.30381991
  entropy T*S    EENTRO =        -0.00000000
  eigenvalues    EBANDS =     -2994.14681658
  atomic energy  EATOM  =     26212.11861568
  Solvation  Ediel_sol  =         0.00000000
  ---------------------------------------------------
  free energy    TOTEN  =     -1407.75719706 eV

  energy without entropy =    -1407.75719706  energy(sigma->0) =    -1407.75719706


--------------------------------------------------------------------------------------------------------




--------------------------------------- Iteration      1(  13)  ---------------------------------------


    POTLOK:  cpu time    0.2546: real time    0.3231
    SETDIJ:  cpu time    1.1985: real time    1.1986
     EDDAV:  cpu time   19.3260: real time   19.3267
       DOS:  cpu time    0.0004: real time    0.0004
    CHARGE:  cpu time    2.7166: real time    2.7167
    MIXING:  cpu time    0.0020: real time    0.0020
    --------------------------------------------
      LOOP:  cpu time   23.4982: real time   23.5676

 eigenvalue-minimisations  :  4416
 total energy-change (2. order) : 0.6466332E-03  (-0.2418812E-03)
 number of electron     343.9999997 magnetization 
 augmentation part       -3.1896686 magnetization 

 Broyden mixing:
  rms(total) = 0.47742E-02    rms(broyden)= 0.47734E-02
  rms(prec ) = 0.56336E-02
  weight for this iteration     100.00

 eigenvalues of (default mixing * dielectric matrix)
  average eigenvalue GAMMA=   1.5800
  3.3256  2.4318  1.2620  1.2620  1.2734  1.2734  0.8733  0.9382

 Free energy of the ion-electron system (eV)
  ---------------------------------------------------
  alpha Z        PSCENC =       872.70583573
  Ewald energy   TEWEN  =    -17988.26975244
  -Hartree energ DENC   =     -7397.16312329
  -exchange      EXHF   =         0.00000000
  -V(xc)+E(xc)   XCENC  =       943.37708134
  PAW double counting   =     22717.02807095   -23774.39431858
  entropy T*S    EENTRO =        -0.00000000
  eigenvalues    EBANDS =     -2993.15895981
  atomic energy  EATOM  =     26212.11861568
  Solvation  Ediel_sol  =         0.00000000
  ---------------------------------------------------
  free energy    TOTEN  =     -1407.75655043 eV

  energy without entropy =    -1407.75655043  energy(sigma->0) =    -1407.75655043


--------------------------------------------------------------------------------------------------------




--------------------------------------- Iteration      1(  14)  ---------------------------------------


    POTLOK:  cpu time    0.2790: real time    0.3200
    SETDIJ:  cpu time    1.1978: real time    1.1978
     EDDAV:  cpu time   17.6871: real time   17.6879
       DOS:  cpu time    0.0005: real time    0.0005
    CHARGE:  cpu time    2.7169: real time    2.7172
    MIXING:  cpu time    0.0017: real time    0.0017
    --------------------------------------------
      LOOP:  cpu time   21.8831: real time   21.9251

 eigenvalue-minimisations  :  3848
 total energy-change (2. order) :-0.4889146E-05  (-0.4168963E-04)
 number of electron     343.9999997 magnetization 
 augmentation part       -3.1888080 magnetization 

 Broyden mixing:
  rms(total) = 0.23425E-02    rms(broyden)= 0.23413E-02
  rms(prec ) = 0.32408E-02
  weight for this iteration     100.00

 eigenvalues of (default mixing * dielectric matrix)
  average eigenvalue GAMMA=   1.6129
  3.3619  2.4082  2.4082  1.1146  1.1146  1.1705  1.1705  0.8836  0.8836

 Free energy of the ion-electron system (eV)
  ---------------------------------------------------
  alpha Z        PSCENC =       872.70583573
  Ewald energy   TEWEN  =    -17988.26975244
  -Hartree energ DENC   =     -7397.31156440
  -exchange      EXHF   =         0.00000000
  -V(xc)+E(xc)   XCENC  =       943.38690411
  PAW double counting   =     22718.56784986   -23775.91057153
  entropy T*S    EENTRO =        -0.00000000
  eigenvalues    EBANDS =     -2993.04387233
  atomic energy  EATOM  =     26212.11861568
  Solvation  Ediel_sol  =         0.00000000
  ---------------------------------------------------
  free energy    TOTEN  =     -1407.75655532 eV

  energy without entropy =    -1407.75655532  energy(sigma->0) =    -1407.75655532


--------------------------------------------------------------------------------------------------------




--------------------------------------- Iteration      1(  15)  ---------------------------------------


    POTLOK:  cpu time    0.2527: real time    0.3210
    SETDIJ:  cpu time    1.1984: real time    1.1984
     EDDAV:  cpu time   17.2103: real time   17.2111
       DOS:  cpu time    0.0004: real time    0.0004
    CHARGE:  cpu time    2.7175: real time    2.7176
    MIXING:  cpu time    0.0019: real time    0.0019
    --------------------------------------------
      LOOP:  cpu time   21.3813: real time   21.4504

 eigenvalue-minimisations  :  3688
 total energy-change (2. order) : 0.8998366E-05  (-0.7306956E-05)
 number of electron     343.9999997 magnetization 
 augmentation part       -3.1886565 magnetization 

 Broyden mixing:
  rms(total) = 0.14697E-02    rms(broyden)= 0.14685E-02
  rms(prec ) = 0.20165E-02
  weight for this iteration     100.00

 eigenvalues of (default mixing * dielectric matrix)
  average eigenvalue GAMMA=   1.6465
  3.8183  2.4792  2.4792  1.1667  1.1667  1.3149  1.3149  0.8292  0.9479  0.9479

 Free energy of the ion-electron system (eV)
  ---------------------------------------------------
  alpha Z        PSCENC =       872.70583573
  Ewald energy   TEWEN  =    -17988.26975244
  -Hartree energ DENC   =     -7397.58291271
  -exchange      EXHF   =         0.00000000
  -V(xc)+E(xc)   XCENC  =       943.39753277
  PAW double counting   =     22718.94252710   -23776.26468911
  entropy T*S    EENTRO =        -0.00000000
  eigenvalues    EBANDS =     -2992.80370334
  atomic energy  EATOM  =     26212.11861568
  Solvation  Ediel_sol  =         0.00000000
  ---------------------------------------------------
  free energy    TOTEN  =     -1407.75654632 eV

  energy without entropy =    -1407.75654632  energy(sigma->0) =    -1407.75654632


--------------------------------------------------------------------------------------------------------




--------------------------------------- Iteration      1(  16)  ---------------------------------------


    POTLOK:  cpu time    0.2845: real time    0.3151
    SETDIJ:  cpu time    1.1965: real time    1.1965
     EDDAV:  cpu time   18.0284: real time   18.0292
       DOS:  cpu time    0.0004: real time    0.0004
    CHARGE:  cpu time    2.7158: real time    2.7159
    MIXING:  cpu time    0.0020: real time    0.0020
    --------------------------------------------
      LOOP:  cpu time   22.2276: real time   22.2591

 eigenvalue-minimisations  :  3960
 total energy-change (2. order) :-0.7527869E-04  (-0.3635526E-05)
 number of electron     343.9999997 magnetization 
 augmentation part       -3.1882777 magnetization 

 Broyden mixing:
  rms(total) = 0.67234E-03    rms(broyden)= 0.66973E-03
  rms(prec ) = 0.79230E-03
  weight for this iteration     100.00

 eigenvalues of (default mixing * dielectric matrix)
  average eigenvalue GAMMA=   1.6785
  4.1258  2.7769  2.5167  1.7504  1.1157  1.1157  1.1984  1.0112  1.0112  0.8167
  1.0254

 Free energy of the ion-electron system (eV)
  ---------------------------------------------------
  alpha Z        PSCENC =       872.70583573
  Ewald energy   TEWEN  =    -17988.26975244
  -Hartree energ DENC   =     -7397.52227968
  -exchange      EXHF   =         0.00000000
  -V(xc)+E(xc)   XCENC  =       943.38509852
  PAW double counting   =     22717.93672186   -23775.26211544
  entropy T*S    EENTRO =        -0.00000000
  eigenvalues    EBANDS =     -2992.84874583
  atomic energy  EATOM  =     26212.11861568
  Solvation  Ediel_sol  =         0.00000000
  ---------------------------------------------------
  free energy    TOTEN  =     -1407.75662160 eV

  energy without entropy =    -1407.75662160  energy(sigma->0) =    -1407.75662160


--------------------------------------------------------------------------------------------------------




--------------------------------------- Iteration      1(  17)  ---------------------------------------


    POTLOK:  cpu time    0.2612: real time    0.3141
    SETDIJ:  cpu time    1.1951: real time    1.1951
     EDDAV:  cpu time   16.6112: real time   16.6119
       DOS:  cpu time    0.0004: real time    0.0004
    CHARGE:  cpu time    2.7158: real time    2.7159
    MIXING:  cpu time    0.0019: real time    0.0019
    --------------------------------------------
      LOOP:  cpu time   20.7857: real time   20.8394

 eigenvalue-minimisations  :  3464
 total energy-change (2. order) : 0.9564568E-05  (-0.6235629E-06)
 number of electron     343.9999997 magnetization 
 augmentation part       -3.1882724 magnetization 

 Broyden mixing:
  rms(total) = 0.31208E-03    rms(broyden)= 0.30651E-03
  rms(prec ) = 0.36784E-03
  weight for this iteration     100.00

 eigenvalues of (default mixing * dielectric matrix)
  average eigenvalue GAMMA=   1.6533
  4.1157  2.7345  2.6331  1.4828  1.4828  1.1749  1.1749  1.1527  1.1527  0.8237
  0.9559  0.9559

 Free energy of the ion-electron system (eV)
  ---------------------------------------------------
  alpha Z        PSCENC =       872.70583573
  Ewald energy   TEWEN  =    -17988.26975244
  -Hartree energ DENC   =     -7397.51416896
  -exchange      EXHF   =         0.00000000
  -V(xc)+E(xc)   XCENC  =       943.38338919
  PAW double counting   =     22718.27637180   -23775.59956090
  entropy T*S    EENTRO =        -0.00000000
  eigenvalues    EBANDS =     -2992.85734214
  atomic energy  EATOM  =     26212.11861568
  Solvation  Ediel_sol  =         0.00000000
  ---------------------------------------------------
  free energy    TOTEN  =     -1407.75661203 eV

  energy without entropy =    -1407.75661203  energy(sigma->0) =    -1407.75661203


--------------------------------------------------------------------------------------------------------




--------------------------------------- Iteration      1(  18)  ---------------------------------------


    POTLOK:  cpu time    0.2975: real time    0.3169
    SETDIJ:  cpu time    1.1969: real time    1.1971
     EDDAV:  cpu time   13.1572: real time   13.1579
       DOS:  cpu time    0.0011: real time    0.0011
    CHARGE:  cpu time    2.7129: real time    2.7130
    MIXING:  cpu time    0.0021: real time    0.0021
    --------------------------------------------
      LOOP:  cpu time   17.3676: real time   17.3880

 eigenvalue-minimisations  :  2248
 total energy-change (2. order) : 0.3177622E-05  (-0.4976609E-07)
 number of electron     343.9999997 magnetization 
 augmentation part       -3.1882932 magnetization 

 Broyden mixing:
  rms(total) = 0.16549E-03    rms(broyden)= 0.15479E-03
  rms(prec ) = 0.19462E-03
  weight for this iteration     100.00

 eigenvalues of (default mixing * dielectric matrix)
  average eigenvalue GAMMA=   1.6951
  4.4729  2.9984  2.3891  2.0622  1.6345  1.1466  1.1466  1.2047  1.2047  0.8144
  1.0003  1.0003  0.9618

 Free energy of the ion-electron system (eV)
  ---------------------------------------------------
  alpha Z        PSCENC =       872.70583573
  Ewald energy   TEWEN  =    -17988.26975244
  -Hartree energ DENC   =     -7397.51845265
  -exchange      EXHF   =         0.00000000
  -V(xc)+E(xc)   XCENC  =       943.38327064
  PAW double counting   =     22718.30694472   -23775.62971178
  entropy T*S    EENTRO =        -0.00000000
  eigenvalues    EBANDS =     -2992.85335877
  atomic energy  EATOM  =     26212.11861568
  Solvation  Ediel_sol  =         0.00000000
  ---------------------------------------------------
  free energy    TOTEN  =     -1407.75660886 eV

  energy without entropy =    -1407.75660886  energy(sigma->0) =    -1407.75660886


--------------------------------------------------------------------------------------------------------




--------------------------------------- Iteration      1(  19)  ---------------------------------------


    POTLOK:  cpu time    0.2558: real time    0.3091
    SETDIJ:  cpu time    1.1944: real time    1.1945
     EDDAV:  cpu time   13.2171: real time   13.2177
       DOS:  cpu time    0.0004: real time    0.0004
    --------------------------------------------
      LOOP:  cpu time   14.6677: real time   14.7217

 eigenvalue-minimisations  :  2264
 total energy-change (2. order) : 0.7467329E-06  (-0.3751724E-07)
 number of electron     343.9999997 magnetization 
 augmentation part       -3.1882932 magnetization 

 Free energy of the ion-electron system (eV)
  ---------------------------------------------------
  alpha Z        PSCENC =       872.70583573
  Ewald energy   TEWEN  =    -17988.26975244
  -Hartree energ DENC   =     -7397.51364869
  -exchange      EXHF   =         0.00000000
  -V(xc)+E(xc)   XCENC  =       943.38266186
  PAW double counting   =     22718.33121735   -23775.65335979
  entropy T*S    EENTRO =        -0.00000000
  eigenvalues    EBANDS =     -2992.85817781
  atomic energy  EATOM  =     26212.11861568
  Solvation  Ediel_sol  =         0.00000000
  ---------------------------------------------------
  free energy    TOTEN  =     -1407.75660811 eV

  energy without entropy =    -1407.75660811  energy(sigma->0) =    -1407.75660811


--------------------------------------------------------------------------------------------------------




 average (electrostatic) potential at core
  the test charge radii are     1.1312  1.1541  1.0178
  (the norm of the test charge is              1.0000)
       1 -55.2995       2 -55.2501       3 -54.4243       4 -55.2788       5 -55.3907
       6 -55.0981       7 -54.8956       8 -55.5206       9-101.6313      10-102.1154
      11-101.6389      12-102.1069      13-101.6389      14-102.1069      15-101.6313
      16-102.1154      17 -68.9821      18 -69.0082      19 -69.6872      20 -69.0192
      21 -69.0131      22 -69.6837      23 -69.0059      24 -68.7960      25 -69.0994
      26 -68.9966      27 -69.0812      28 -69.1068      29 -68.8743      30 -69.2691
      31 -69.0059      32 -68.7960      33 -69.0993      34 -68.9966      35 -68.8743
      36 -69.2691      37 -69.0811      38 -69.1068      39 -67.4950



 E-fermi :   0.7524     XC(G=0):  -7.9617     alpha+bet : -6.9586


 k-point     1 :       0.0000    0.0000    0.0000
  band No.  band energies     occupation 
      1     -21.0482      2.00000
      2     -20.9190      2.00000
      3     -20.8287      2.00000
      4     -20.8125      2.00000
      5     -20.7767      2.00000
      6     -20.6276      2.00000
      7     -20.4344      2.00000
      8     -20.0906      2.00000
      9     -16.9114      2.00000
     10     -16.8991      2.00000
     11     -16.8644      2.00000
     12     -16.8511      2.00000
     13     -16.8343      2.00000
     14     -16.8320      2.00000
     15     -16.7987      2.00000
     16     -16.7971      2.00000
     17     -16.7846      2.00000
     18     -16.7839      2.00000
     19     -16.7770      2.00000
     20     -16.7763      2.00000
     21     -16.7757      2.00000
     22     -16.7749      2.00000
     23     -16.7667      2.00000
     24     -16.7660      2.00000
     25     -16.7118      2.00000
     26     -16.7117      2.00000
     27     -16.7021      2.00000
     28     -16.7020      2.00000
     29     -16.4604      2.00000
     30     -16.4487      2.00000
     31     -16.4316      2.00000
     32     -16.4269      2.00000
     33     -16.3982      2.00000
     34     -16.3873      2.00000
     35     -16.3804      2.00000
     36     -16.3619      2.00000
     37     -16.3060      2.00000
     38     -16.3052      2.00000
     39     -16.3008      2.00000
     40     -16.3004      2.00000
     41     -16.2974      2.00000
     42     -16.2967      2.00000
     43     -16.2925      2.00000
     44     -16.2920      2.00000
     45     -16.2861      2.00000
     46     -16.2853      2.00000
     47     -16.2811      2.00000
     48     -16.2803      2.00000
     49     -14.7035      2.00000
     50     -14.6546      2.00000
     51     -14.3103      2.00000
     52     -14.3080      2.00000
     53     -14.2261      2.00000
     54     -14.1558      2.00000
     55     -14.1271      2.00000
     56     -14.1115      2.00000
     57     -14.1044      2.00000
     58     -14.0888      2.00000
     59     -14.0664      2.00000
     60     -14.0633      2.00000
     61     -14.0439      2.00000
     62     -14.0080      2.00000
     63     -13.9827      2.00000
     64     -13.9759      2.00000
     65     -13.9128      2.00000
     66     -13.8371      2.00000
     67     -13.8332      2.00000
     68     -13.7411      2.00000
     69     -13.7194      2.00000
     70     -13.7048      2.00000
     71     -12.6962      2.00000
     72      -8.3023      2.00000
     73      -7.9225      2.00000
     74      -7.8340      2.00000
     75      -7.7905      2.00000
     76      -7.4864      2.00000
     77      -7.4483      2.00000
     78      -7.4059      2.00000
     79      -7.3959      2.00000
     80      -7.3341      2.00000
     81      -7.3291      2.00000
     82      -7.3044      2.00000
     83      -7.2641      2.00000
     84      -7.2599      2.00000
     85      -7.2484      2.00000
     86      -7.2281      2.00000
     87      -7.2263      2.00000
     88      -7.2233      2.00000
     89      -7.2160      2.00000
     90      -7.1912      2.00000
     91      -7.1853      2.00000
     92      -7.1645      2.00000
     93      -7.1503      2.00000
     94      -7.0596      2.00000
     95      -7.0181      2.00000
     96      -7.0131      2.00000
     97      -6.8934      2.00000
     98      -6.8565      2.00000
     99      -6.8323      2.00000
    100      -6.6545      2.00000
    101      -6.5943      2.00000
    102      -6.5492      2.00000
    103      -6.5316      2.00000
    104      -3.3504      2.00000
    105      -3.3419      2.00000
    106      -3.3217      2.00000
    107      -3.2705      2.00000
    108      -3.2490      2.00000
    109      -3.2339      2.00000
    110      -3.2147      2.00000
    111      -3.1857      2.00000
    112      -3.1197      2.00000
    113      -3.0568      2.00000
    114      -2.9886      2.00000
    115      -2.9781      2.00000
    116      -2.3674      2.00000
    117      -2.3013      2.00000
    118      -2.1974      2.00000
    119      -2.1118      2.00000
    120      -2.0211      2.00000
    121      -1.9744      2.00000
    122      -1.9413      2.00000
    123      -1.9275      2.00000
    124      -1.9044      2.00000
    125      -1.8678      2.00000
    126      -1.7939      2.00000
    127      -1.7750      2.00000
    128      -1.7596      2.00000
    129      -1.7466      2.00000
    130      -1.7054      2.00000
    131      -1.6714      2.00000
    132      -1.6181      2.00000
    133      -1.5865      2.00000
    134      -1.5748      2.00000
    135      -1.5455      2.00000
    136      -1.5384      2.00000
    137      -1.5237      2.00000
    138      -1.5111      2.00000
    139      -1.4932      2.00000
    140      -1.4723      2.00000
    141      -1.4510      2.00000
    142      -1.4364      2.00000
    143      -1.4308      2.00000
    144      -1.4146      2.00000
    145      -1.3756      2.00000
    146      -1.3652      2.00000
    147      -1.3567      2.00000
    148      -1.3494      2.00000
    149      -1.3372      2.00000
    150      -1.3221      2.00000
    151      -1.3025      2.00000
    152      -1.3002      2.00000
    153      -1.2491      2.00000
    154      -1.1831      2.00000
    155      -1.1581      2.00000
    156      -1.1561      2.00000
    157      -1.1402      2.00000
    158      -1.1215      2.00000
    159      -1.1174      2.00000
    160      -1.0545      2.00000
    161      -0.9757      2.00000
    162      -0.8978      2.00000
    163      -0.8795      2.00000
    164      -0.7966      2.00000
    165      -0.7579      2.00000
    166      -0.5139      2.00000
    167      -0.5021      2.00000
    168      -0.2856      2.00000
    169      -0.2113      2.00000
    170       0.1583      2.00000
    171       0.3205      2.00000
    172       0.6706      2.00000
    173       2.3069      0.00000
    174       2.4051      0.00000
    175       2.6049      0.00000
    176       2.8086      0.00000
    177       2.9014      0.00000
    178       3.0013      0.00000
    179       3.0488      0.00000
    180       3.0930      0.00000
    181       3.1144      0.00000
    182       3.3612      0.00000
    183       3.4121      0.00000
    184       3.5046      0.00000
    185       3.9652      0.00000
    186       4.4062      0.00000
    187       4.8191      0.00000
    188       5.3591      0.00000
    189       5.4286      0.00000
    190       5.6547      0.00000
    191       5.7467      0.00000
    192       5.7734      0.00000
    193       5.8111      0.00000
    194       5.8396      0.00000
    195       5.9669      0.00000
    196       6.0432      0.00000
    197       6.0452      0.00000
    198       6.0515      0.00000
    199       6.1426      0.00000
    200       6.2066      0.00000
    201       6.3091      0.00000
    202       6.3351      0.00000
    203       6.4076      0.00000
    204       6.4948      0.00000
    205       6.4987      0.00000
    206       6.5328      0.00000
    207       6.6319      0.00000
    208       6.6351      0.00000

 k-point     2 :       0.5000    0.0000    0.0000
  band No.  band energies     occupation 
      1     -21.0482      2.00000
      2     -20.9190      2.00000
      3     -20.8287      2.00000
      4     -20.8125      2.00000
      5     -20.7767      2.00000
      6     -20.6276      2.00000
      7     -20.4344      2.00000
      8     -20.0906      2.00000
      9     -16.9079      2.00000
     10     -16.9008      2.00000
     11     -16.8591      2.00000
     12     -16.8512      2.00000
     13     -16.8225      2.00000
     14     -16.8222      2.00000
     15     -16.8124      2.00000
     16     -16.8121      2.00000
     17     -16.7845      2.00000
     18     -16.7837      2.00000
     19     -16.7769      2.00000
     20     -16.7763      2.00000
     21     -16.7762      2.00000
     22     -16.7756      2.00000
     23     -16.7667      2.00000
     24     -16.7659      2.00000
     25     -16.7118      2.00000
     26     -16.7118      2.00000
     27     -16.7022      2.00000
     28     -16.7021      2.00000
     29     -16.4545      2.00000
     30     -16.4492      2.00000
     31     -16.4122      2.00000
     32     -16.4111      2.00000
     33     -16.4022      2.00000
     34     -16.4021      2.00000
     35     -16.3854      2.00000
     36     -16.3800      2.00000
     37     -16.3060      2.00000
     38     -16.3052      2.00000
     39     -16.3008      2.00000
     40     -16.3004      2.00000
     41     -16.2974      2.00000
     42     -16.2967      2.00000
     43     -16.2926      2.00000
     44     -16.2920      2.00000
     45     -16.2862      2.00000
     46     -16.2852      2.00000
     47     -16.2812      2.00000
     48     -16.2802      2.00000
     49     -14.6912      2.00000
     50     -14.6703      2.00000
     51     -14.3023      2.00000
     52     -14.2845      2.00000
     53     -14.2351      2.00000
     54     -14.2094      2.00000
     55     -14.1335      2.00000
     56     -14.1122      2.00000
     57     -14.1113      2.00000
     58     -14.0937      2.00000
     59     -14.0722      2.00000
     60     -14.0632      2.00000
[...]


--------------------------------------------------------------------------------------------------------


 soft charge-density along one line, spin component           1
         0         1         2         3         4         5         6         7         8         9
 total charge-density along one line

 pseudopotential strength for first ion, spin component:           1
 17.980  -4.707   0.000   0.001  -0.002  -0.000  -0.002   0.002
 -4.707   1.241  -0.000  -0.000   0.000   0.000   0.000  -0.000
  0.000  -0.000   2.267  -0.000   0.000  -2.712   0.000  -0.000
  0.001  -0.000  -0.000   2.269  -0.001   0.000  -2.714   0.001
 -0.002   0.000   0.000  -0.001   2.268  -0.000   0.001  -2.713
 -0.000   0.000  -2.712   0.000  -0.000   3.213  -0.000   0.000
 -0.002   0.000   0.000  -2.714   0.001  -0.000   3.215  -0.002
  0.002  -0.000  -0.000   0.001  -2.713   0.000  -0.002   3.214
  0.000  -0.000  -0.000   0.000   0.000   0.000  -0.000  -0.000
 -0.000   0.000   0.002   0.000   0.000  -0.002  -0.000  -0.000
  0.001  -0.000  -0.000  -0.000   0.001   0.000   0.001  -0.001
 -0.001   0.000   0.000  -0.001   0.001  -0.000   0.001  -0.002
  0.000  -0.000  -0.000  -0.000  -0.002   0.000   0.000   0.003
 total augmentation occupancy for first ion, spin component:           1
  1.912  -0.138   0.000   0.000  -0.000   0.000   0.001  -0.001  -0.000   0.000   0.001  -0.001   0.000
 -0.138   0.115   0.000   0.003  -0.005   0.000  -0.001   0.002   0.000  -0.000  -0.003   0.004   0.001
  0.000   0.000   2.016   0.000  -0.000   0.003   0.000  -0.000   0.001   0.003  -0.000   0.000  -0.000
  0.000   0.003   0.000   2.020  -0.003   0.000   0.006  -0.002   0.000   0.000  -0.002  -0.002  -0.000
 -0.000  -0.005  -0.000  -0.003   2.017  -0.000  -0.002   0.004   0.000   0.000   0.001   0.003  -0.004
  0.000   0.000   0.003   0.000  -0.000   0.008  -0.000   0.000  -0.001  -0.002   0.000  -0.000  -0.000
  0.001  -0.001   0.000   0.006  -0.002  -0.000   0.007   0.001  -0.000   0.000   0.002  -0.000   0.001
 -0.001   0.002  -0.000  -0.002   0.004   0.000   0.001   0.009   0.000  -0.000  -0.001  -0.001   0.002
 -0.000   0.000   0.001   0.000   0.000  -0.001  -0.000   0.000   0.006   0.001   0.000  -0.000  -0.000
  0.000  -0.000   0.003   0.000   0.000  -0.002   0.000  -0.000   0.001   0.005  -0.000   0.000   0.000
  0.001  -0.003  -0.000  -0.002   0.001   0.000   0.002  -0.001   0.000  -0.000   0.005  -0.002  -0.001
 -0.001   0.004   0.000  -0.002   0.003  -0.000  -0.000  -0.001  -0.000   0.000  -0.002   0.004   0.001
  0.000   0.001  -0.000  -0.000  -0.004  -0.000   0.001   0.002  -0.000   0.000  -0.001   0.001   0.004


------------------------ aborting loop because EDIFF is reached ----------------------------------------





 total charge     

# of ion       s       p       d       tot
------------------------------------------
    1        1.786   4.716   0.018   6.520
    2        1.785   4.716   0.017   6.519
    3        1.803   4.713   0.063   6.579
    4        1.786   4.717   0.019   6.522
    5        1.785   4.716   0.018   6.519
    6        1.786   4.716   0.018   6.520
    7        1.787   4.716   0.021   6.524
    8        1.786   4.716   0.017   6.519
    9        1.554   0.416   9.834  11.804
   10        1.539   0.410   9.829  11.778
   11        1.554   0.416   9.834  11.803
   12        1.539   0.410   9.829  11.778
   13        1.554   0.416   9.834  11.803
   14        1.539   0.410   9.829  11.778
   15        1.554   0.416   9.834  11.804
   16        1.539   0.410   9.829  11.778
   17        1.614   3.285   0.007   4.906
   18        1.614   3.284   0.007   4.905
   19        1.615   3.269   0.007   4.890
   20        1.614   3.286   0.007   4.907
   21        1.615   3.284   0.007   4.905
   22        1.615   3.270   0.007   4.891
   23        1.614   3.283   0.006   4.903
   24        1.617   3.269   0.008   4.894
   25        1.614   3.278   0.006   4.899
   26        1.614   3.275   0.006   4.895
   27        1.614   3.278   0.006   4.898
   28        1.614   3.279   0.006   4.899
   29        1.614   3.282   0.006   4.902
   30        1.614   3.276   0.006   4.896
   31        1.614   3.283   0.006   4.903
   32        1.617   3.269   0.008   4.894
   33        1.614   3.278   0.006   4.899
   34        1.614   3.275   0.006   4.895
   35        1.614   3.282   0.006   4.902
   36        1.614   3.276   0.006   4.896
   37        1.614   3.278   0.006   4.898
   38        1.614   3.279   0.006   4.899
   39        1.618   3.328   0.008   4.954
--------------------------------------------------
tot         63.814 116.477  78.988 259.279

    CHARGE:  cpu time    0.3987: real time    0.3988
    FORLOC:  cpu time    0.0111: real time    0.0111
    FORNL :  cpu time    1.9278: real time    1.9280
    STRESS:  cpu time   50.0044: real time   50.0065
    FORCOR:  cpu time    0.2417: real time    0.2417
    FORHAR:  cpu time    0.0275: real time    0.0275
    MIXING:  cpu time    0.0019: real time    0.0019
    OFIELD:  cpu time    0.0000: real time    0.0000

  FORCE on cell =-STRESS in cart. coord.  units (eV):
  Direction    XX          YY          ZZ          XY          YZ          ZX
  --------------------------------------------------------------------------------------
  Alpha Z   872.70584   872.70584   872.70584
  Ewald   -5727.33986 -6437.23429 -5823.77503    -0.00023     0.00033    22.99873
  Hartree  2660.87369  2133.57273  2603.07059    -0.00004     0.00012    56.26179
  E(xc)   -1449.02082 -1449.48165 -1448.91503     0.00000     0.00000    -0.28377
  Local   -3323.06135 -2082.52740 -3170.75018     0.00027    -0.00044   -78.44948
  n-local  1748.26653  1741.51691  1746.95364    -0.00000     0.00000    -0.39665
  augment   819.49996   815.93527   818.38243     0.00002    -0.00003     0.41284
  Kinetic  4390.69003  4400.46422  4399.63471     0.00000    -0.00001    -5.37955
  Fock        0.00000     0.00000     0.00000     0.00000     0.00000     0.00000
  -------------------------------------------------------------------------------------
  Total      -7.38599    -5.04838    -2.69304     0.00002    -0.00003    -4.83610
  in kB      -7.41881    -5.07081    -2.70501     0.00002    -0.00003    -4.85760
  external pressure =       -5.06 kB  Pullay stress =        0.00 kB


 VOLUME and BASIS-vectors are now :
 -----------------------------------------------------------------------------
  energy-cutoff  :      300.00
  volume of cell :     1595.09
      direct lattice vectors                 reciprocal lattice vectors
     8.456489000  0.000000000  8.040301000     0.059126193 -0.000000000  0.062186727
     0.000000000 11.729847000  0.000000000     0.000000000  0.085252604 -0.000000000
    -8.456489000  0.000000000  8.040301000    -0.059126193  0.000000000  0.062186727

  length of vectors
    11.668703715 11.729847000 11.668703715     0.085808482  0.085252604  0.085808482


 FORCES acting on ions
    electron-ion (+dipol)            ewald-force                    non-local-force                 convergence-correction
 -----------------------------------------------------------------------------------------------
   0.385E+02 0.346E-03 -.272E+02   -.383E+02 -.350E-03 0.271E+02   -.161E+00 0.273E-06 0.102E+00   -.315E-03 -.156E-06 0.527E-03
   0.176E+02 -.451E-04 0.259E+01   -.176E+02 0.498E-04 -.248E+01   0.105E-01 -.361E-05 -.131E+00   0.557E-03 -.488E-06 -.635E-03
   -.267E+02 -.150E-03 -.116E+02   0.271E+02 0.154E-03 0.109E+02   0.124E+01 -.649E-06 -.169E+01   -.460E-03 0.717E-06 0.391E-03
   -.644E+02 0.484E-03 0.185E+02   0.641E+02 -.483E-03 -.182E+02   0.253E+00 -.598E-05 -.209E+00   0.520E-03 -.391E-06 -.303E-03
   0.119E+02 -.174E-04 0.277E+02   -.121E+02 0.222E-04 -.275E+02   0.136E+00 -.932E-05 -.159E+00   0.546E-03 -.948E-08 -.355E-03
   0.366E+02 0.200E-03 -.311E+01   -.366E+02 -.203E-03 0.294E+01   -.264E-01 0.238E-05 0.163E+00   -.635E-03 -.923E-06 0.457E-03
   -.273E+02 0.281E-03 0.513E+02   0.279E+02 -.288E-03 -.514E+02   -.432E+00 0.305E-05 0.821E-01   0.367E-03 0.137E-06 -.511E-03
   0.281E+02 0.189E-04 -.178E+02   -.276E+02 -.123E-04 0.176E+02   -.476E+00 -.329E-05 0.107E+00   -.238E-03 -.363E-07 0.547E-03
   -.386E+01 0.826E+01 -.805E+01   0.393E+01 -.832E+01 0.816E+01   -.106E+00 0.553E-01 -.205E+00   -.183E-03 -.649E-03 -.201E-03
   0.269E+02 0.104E+03 -.322E+01   -.270E+02 -.108E+03 0.414E+01   0.453E+00 0.425E+01 -.656E+00   0.397E-03 -.389E-03 0.222E-03
   0.138E+01 0.719E+01 0.113E+02   -.160E+01 -.721E+01 -.113E+02   0.276E+00 -.781E-02 0.234E-01   0.110E-03 -.743E-03 0.188E-03
   -.294E+02 0.103E+03 -.260E+01   0.295E+02 -.107E+03 0.173E+01   -.484E+00 0.427E+01 0.572E+00   -.408E-03 -.841E-04 -.391E-03
   0.138E+01 -.719E+01 0.113E+02   -.160E+01 0.721E+01 -.113E+02   0.275E+00 0.779E-02 0.235E-01   0.107E-03 0.743E-03 0.186E-03
   -.294E+02 -.103E+03 -.260E+01   0.295E+02 0.107E+03 0.173E+01   -.484E+00 -.427E+01 0.572E+00   -.408E-03 0.831E-04 -.388E-03
   -.386E+01 -.827E+01 -.805E+01   0.393E+01 0.832E+01 0.816E+01   -.106E+00 -.555E-01 -.205E+00   -.178E-03 0.645E-03 -.207E-03
   0.269E+02 -.104E+03 -.322E+01   -.270E+02 0.108E+03 0.414E+01   0.453E+00 -.425E+01 -.656E+00   0.397E-03 0.386E-03 0.220E-03
   0.458E+01 0.341E-03 0.475E+02   -.469E+01 -.344E-03 -.477E+02   0.670E-01 0.847E-06 0.139E+00   0.271E-03 0.159E-06 0.847E-04
   -.130E+02 0.129E-02 0.338E+02   0.131E+02 -.131E-02 -.341E+02   -.545E-01 0.152E-04 0.286E+00   -.850E-04 -.313E-06 -.342E-04
   -.949E+00 0.215E-04 0.420E+02   0.101E+01 -.211E-04 -.426E+02   -.700E-01 -.576E-07 0.615E+00   0.132E-03 0.252E-06 0.150E-03
   0.191E+02 0.135E-02 -.430E+02   -.193E+02 -.138E-02 0.432E+02   0.184E+00 0.174E-04 -.137E+00   -.172E-03 0.103E-05 -.161E-03
   -.673E+01 0.277E-03 -.353E+02   0.684E+01 -.280E-03 0.356E+02   -.122E+00 0.419E-05 -.315E+00   -.965E-04 -.313E-07 0.152E-03
   -.133E+02 0.410E-05 -.407E+02   0.133E+02 -.386E-05 0.413E+02   0.738E-01 0.103E-05 -.573E+00   0.568E-04 -.764E-06 -.297E-03
   -.244E+02 0.788E+01 0.284E+02   0.246E+02 -.804E+01 -.286E+02   -.179E+00 0.144E+00 0.224E+00   0.113E-03 0.368E-03 -.364E-05
   -.191E+02 0.173E+02 0.222E+02   0.194E+02 -.171E+02 -.224E+02   -.201E+00 -.980E+00 0.189E+00   -.117E-03 0.283E-03 -.136E-04
   0.381E+02 -.313E+02 0.146E+02   -.382E+02 0.315E+02 -.148E+02   0.207E-01 -.226E+00 0.233E+00   -.101E-03 0.300E-03 0.468E-03
   0.281E-01 -.321E+02 0.312E+02   -.312E+00 0.324E+02 -.315E+02   0.334E+00 -.336E+00 0.344E+00   0.868E-04 0.362E-03 -.434E-03
   -.290E+02 0.687E+01 -.558E+01   0.292E+02 -.677E+01 0.589E+01   -.242E+00 -.871E-01 -.374E+00   0.343E-03 -.511E-03 -.247E-03
   -.716E+01 0.441E+01 -.397E+02   0.737E+01 -.427E+01 0.399E+02   -.228E+00 -.143E+00 -.112E+00   -.367E-03 -.228E-03 0.156E-03
   0.213E+02 0.136E+02 -.288E+02   -.216E+02 -.138E+02 0.291E+02   0.271E+00 0.281E+00 -.289E+00   -.176E-03 -.401E-03 0.735E-04
   0.109E+02 0.599E+02 -.211E+02   -.111E+02 -.600E+02 0.214E+02   0.194E+00 0.137E+00 -.207E+00   0.210E-03 -.379E-03 0.468E-04
   -.244E+02 -.788E+01 0.284E+02   0.246E+02 0.804E+01 -.286E+02   -.179E+00 -.144E+00 0.224E+00   0.112E-03 -.368E-03 -.386E-05
   -.191E+02 -.173E+02 0.222E+02   0.194E+02 0.171E+02 -.224E+02   -.201E+00 0.980E+00 0.189E+00   -.117E-03 -.283E-03 -.132E-04
   0.381E+02 0.313E+02 0.146E+02   -.382E+02 -.315E+02 -.148E+02   0.207E-01 0.226E+00 0.233E+00   -.100E-03 -.300E-03 0.468E-03
   0.279E-01 0.321E+02 0.312E+02   -.312E+00 -.324E+02 -.315E+02   0.334E+00 0.336E+00 0.344E+00   0.869E-04 -.362E-03 -.434E-03
   0.213E+02 -.136E+02 -.288E+02   -.216E+02 0.138E+02 0.291E+02   0.271E+00 -.281E+00 -.289E+00   -.177E-03 0.401E-03 0.728E-04
   0.109E+02 -.599E+02 -.211E+02   -.111E+02 0.600E+02 0.214E+02   0.194E+00 -.137E+00 -.207E+00   0.209E-03 0.380E-03 0.479E-04
   -.290E+02 -.687E+01 -.558E+01   0.292E+02 0.677E+01 0.589E+01   -.242E+00 0.871E-01 -.374E+00   0.343E-03 0.511E-03 -.246E-03
   -.716E+01 -.441E+01 -.397E+02   0.737E+01 0.427E+01 0.399E+02   -.228E+00 0.143E+00 -.112E+00   -.366E-03 0.228E-03 0.156E-03
   0.252E+02 0.462E-05 -.417E+02   -.255E+02 -.544E-05 0.422E+02   -.137E+01 -.705E-06 0.189E+01   -.162E-03 0.527E-06 -.109E-03
 -----------------------------------------------------------------------------------------------
   0.470E+00 0.300E-03 0.372E+00   0.135E-12 0.533E-14 0.711E-13   -.538E+00 -.304E-03 -.343E+00   0.103E-03 -.667E-05 -.376E-03


 POSITION                                       TOTAL-FORCE (eV/Angst)
 -----------------------------------------------------------------------------------
      0.57001      2.93246      3.75316         0.026450     -0.000003     -0.029438
      0.47392      2.93246     11.94929         0.013033      0.000001     -0.018604
      3.77812      8.79739      7.74130         1.467569      0.000004     -2.120381
     -4.82782      8.79739      7.97031        -0.085273     -0.000005      0.042847
     -3.72665      2.93246      8.29744        -0.028507     -0.000004      0.044746
      4.77415      2.93246      8.16333        -0.030748     -0.000001      0.001704
     -0.62400      8.79739     12.37281         0.106685     -0.000003     -0.032695
     -0.42619      8.79739      4.07301         0.053063      0.000004     -0.069837
      0.00517      0.00799     16.07249        -0.027196     -0.002089     -0.106757
      0.00039      0.06551      8.02703         0.332499      0.028786      0.262688
      4.22591      0.00524      4.02147         0.061307     -0.024541      0.068231
     -4.22160      0.06776      4.03895        -0.356602      0.004376     -0.286953
      4.22590      5.85968      4.02148         0.061346      0.024540      0.068205
     -4.22160      5.79716      4.03895        -0.356605     -0.004381     -0.286945
      0.00517      5.85692     16.07249        -0.027189      0.002095     -0.106761
      0.00039      5.79941      8.02703         0.332482     -0.028783      0.262710
     -4.21324      8.79739     11.59128        -0.026863     -0.000002     -0.066854
     -0.02342      2.93246     15.57095         0.012849     -0.000005      0.015239
     -0.10741      2.93246      7.42798        -0.013897      0.000001      0.043701
     -0.04077      8.79739      0.45541         0.018864     -0.000002      0.029533
      4.17928      2.93246      4.52394        -0.016553      0.000002     -0.018672
     -4.30741      2.93246      4.63772         0.034943      0.000001     -0.034232
     -5.93823      5.49545      9.62728         0.009172     -0.000127      0.000581
      2.52537      5.50262      9.62563         0.059069     -0.802914     -0.072279
      1.70516      6.30017      5.64772        -0.098242     -0.018395      0.021556
      1.74060      6.30419     13.63915         0.068599     -0.053977      0.039078
     -1.69564      0.35513     10.47260         0.014611      0.003853     -0.082029
     -1.72095      0.37900      2.43554        -0.038000     -0.011749      0.072689
      5.93928     11.38534      6.45112         0.045947      0.086230     -0.017672
     -2.48983     11.19743      6.42325         0.021825     -0.050710      0.010573
     -5.93823      0.36947      9.62728         0.009176      0.000131      0.000579
      2.52537      0.36230      9.62563         0.059069      0.802913     -0.072276
      1.70516     11.29460      5.64772        -0.098239      0.018399      0.021556
      1.74060     11.29058     13.63915         0.068600      0.053975      0.039076
      5.93928      6.20943      6.45112         0.045944     -0.086227     -0.017670
     -2.48983      6.39734      6.42325         0.021825      0.050711      0.010572
     -1.69564      5.50979     10.47260         0.014608     -0.003850     -0.082034
     -1.72095      5.48592      2.43554        -0.037999      0.011748      0.072685
      2.18636      8.79739     10.05855        -1.717621     -0.000001      2.393536
 -----------------------------------------------------------------------------------
    total drift:                               -0.067455     -0.000011      0.028106


--------------------------------------------------------------------------------------------------------



  FREE ENERGIE OF THE ION-ELECTRON SYSTEM (eV)
  ---------------------------------------------------
  free  energy   TOTEN  =     -1407.75660811 eV

  energy  without entropy=    -1407.75660811  energy(sigma->0) =    -1407.75660811



--------------------------------------------------------------------------------------------------------


    POTLOK:  cpu time    1.4307: real time    1.4308


--------------------------------------------------------------------------------------------------------


 stress matrix after NEB project (eV)
     -7.38599      0.00002     -4.83610
      0.00002     -5.04838     -0.00003
     -4.83602     -0.00003     -2.69304
  FORCES: max atom, RMS     2.946054    0.671737
  FORCE total and by dimension    4.194997    2.393536
  Stress total and by dimension   11.578702    7.385986
     LOOP+:  cpu time  447.4531: real time  448.2952
    4ORBIT:  cpu time    0.0000: real time    0.0000



 total charge     

# of ion       s       p       d       tot
------------------------------------------
    1        1.786   4.716   0.018   6.520
    2        1.785   4.716   0.017   6.519
    3        1.803   4.713   0.063   6.579
    4        1.786   4.717   0.019   6.522
    5        1.785   4.716   0.018   6.519
    6        1.786   4.716   0.018   6.520
    7        1.787   4.716   0.021   6.524
    8        1.786   4.716   0.017   6.519
    9        1.554   0.416   9.834  11.804
   10        1.539   0.410   9.829  11.778
   11        1.554   0.416   9.834  11.803
   12        1.539   0.410   9.829  11.778
   13        1.554   0.416   9.834  11.803
   14        1.539   0.410   9.829  11.778
   15        1.554   0.416   9.834  11.804
   16        1.539   0.410   9.829  11.778
   17        1.614   3.285   0.007   4.906
   18        1.614   3.284   0.007   4.905
   19        1.615   3.269   0.007   4.890
   20        1.614   3.286   0.007   4.907
   21        1.615   3.284   0.007   4.905
   22        1.615   3.270   0.007   4.891
   23        1.614   3.283   0.006   4.903
   24        1.617   3.269   0.008   4.894
   25        1.614   3.278   0.006   4.899
   26        1.614   3.275   0.006   4.895
   27        1.614   3.278   0.006   4.898
   28        1.614   3.279   0.006   4.899
   29        1.614   3.282   0.006   4.902
   30        1.614   3.276   0.006   4.896
   31        1.614   3.283   0.006   4.903
   32        1.617   3.269   0.008   4.894
   33        1.614   3.278   0.006   4.899
   34        1.614   3.275   0.006   4.895
   35        1.614   3.282   0.006   4.902
   36        1.614   3.276   0.006   4.896
   37        1.614   3.278   0.006   4.898
   38        1.614   3.279   0.006   4.899
   39        1.618   3.328   0.008   4.954
--------------------------------------------------
tot         63.814 116.477  78.988 259.279


 total amount of memory used by VASP MPI-rank0    60647. kBytes
=======================================================================

   base      :      30000. kBytes
   nonlr-proj:       6482. kBytes
   fftplans  :       8423. kBytes
   grid      :       7465. kBytes
   one-center:         77. kBytes
   wavefun   :       8200. kBytes

  
  
 General timing and accounting informations for this job:
 ========================================================
  
                  Total CPU time used (sec):      459.804
                            User time (sec):      458.380
                          System time (sec):        1.424
                         Elapsed time (sec):      461.572
  
                   Maximum memory used (kb):       78208.
                   Average memory used (kb):           0.
  
                          Minor page faults:        20864
                          Major page faults:            1
                 Voluntary context switches:         2250
