PROCAR new format
# of k-points:    8         # of bands:  208         # of ions:   39

 k-point     1 :    0.00000000 0.00000000 0.00000000     weight = 0.12500000

band     1 # energy  -21.04818392 # occ.  2.00000000

ion      s      p      d    tot
    1  0.000  0.000  0.000  0.000
    2  0.000  0.000  0.000  0.000
    3  0.000  0.000  0.000  0.000
    4  0.000  0.000  0.000  0.000
    5  0.000  0.000  0.000  0.000
    6  0.000  0.000  0.000  0.000
    7  0.000  0.000  0.000  0.000
    8  0.888  0.000  0.000  0.888
    9  0.000  0.000  0.000  0.000
   10  0.000  0.000  0.000  0.000
   11  0.000  0.000  0.000  0.000
   12  0.000  0.000  0.000  0.000
   13  0.000  0.000  0.000  0.000
   14  0.000  0.000  0.000  0.000
   15  0.000  0.000  0.000  0.000
   16  0.000  0.000  0.000  0.000
   17  0.000  0.000  0.000  0.000
   18  0.000  0.000  0.000  0.000
   19  0.000  0.000  0.000  0.000
   20  0.000  0.000  0.000  0.000
   21  0.000  0.000  0.000  0.000
   22  0.000  0.000  0.000  0.000
   23  0.000  0.000  0.000  0.000
   24  0.000  0.000  0.000  0.000
   25  0.000  0.000  0.000  0.000
   26  0.000  0.000  0.000  0.000
   27  0.000  0.000  0.000  0.000
   28  0.000  0.000  0.000  0.000
   29  0.000  0.000  0.000  0.000
   30  0.000  0.000  0.000  0.000
   31  0.000  0.000  0.000  0.000
   32  0.000  0.000  0.000  0.000
   33  0.000  0.000  0.000  0.000
   34  0.000  0.000  0.000  0.000
   35  0.000  0.000  0.000  0.000
   36  0.000  0.000  0.000  0.000
   37  0.000  0.000  0.000  0.000
   38  0.000  0.000  0.000  0.000
   39  0.000  0.000  0.000  0.000
tot    0.888  0.000  0.000  0.888

band     2 # energy  -20.91902692 # occ.  2.00000000

ion      s      p      d    tot
    1  0.000  0.000  0.000  0.000
    2  0.000  0.000  0.000  0.000
    3  0.000  0.000  0.000  0.000
    4  0.000  0.000  0.000  0.000
    5  0.887  0.000  0.000  0.887
    6  0.000  0.000  0.000  0.000
    7  0.000  0.000  0.000  0.000
    8  0.000  0.000  0.000  0.000
    9  0.000  0.000  0.000  0.000
   10  0.000  0.000  0.000  0.000
   11  0.000  0.000  0.000  0.000
   12  0.000  0.000  0.000  0.000
   13  0.000  0.000  0.000  0.000
   14  0.000  0.000  0.000  0.000
   15  0.000  0.000  0.000  0.000
   16  0.000  0.000  0.000  0.000
   17  0.000  0.000  0.000  0.000
   18  0.000  0.000  0.000  0.000
   19  0.000  0.000  0.000  0.000
   20  0.000  0.000  0.000  0.000
   21  0.000  0.000  0.000  0.000
   22  0.000  0.000  0.000  0.000
   23  0.000  0.000  0.000  0.000
   24  0.000  0.000  0.000  0.000
   25  0.000  0.000  0.000  0.000
   26  0.000  0.000  0.000  0.000
   27  0.000  0.000  0.000  0.000
   28  0.000  0.000  0.000  0.000
   29  0.000  0.000  0.000  0.000
   30  0.000  0.000  0.000  0.000
   31  0.000  0.000  0.000  0.000
   32  0.000  0.000  0.000  0.000
   33  0.000  0.000  0.000  0.000
   34  0.000  0.000  0.000  0.000
   35  0.000  0.000  0.000  0.000
   36  0.000  0.000  0.000  0.000
   37  0.000  0.000  0.000  0.000
   38  0.000  0.000  0.000  0.000
   39  0.000  0.000  0.000  0.000
tot    0.888  0.000  0.000  0.888

band     3 # energy  -20.82869750 # occ.  2.00000000

ion      s      p      d    tot
    1  0.887  0.000  0.000  0.887
    2  0.000  0.000  0.000  0.000
    3  0.000  0.000  0.000  0.000
    4  0.000  0.000  0.000  0.000
    5  0.000  0.000  0.000  0.000
    6  0.000  0.000  0.000  0.000
    7  0.000  0.000  0.000  0.000
    8  0.000  0.000  0.000  0.000
    9  0.000  0.000  0.000  0.000
   10  0.000  0.000  0.000  0.000
   11  0.000  0.000  0.000  0.000
   12  0.000  0.000  0.000  0.000
   13  0.000  0.000  0.000  0.000
   14  0.000  0.000  0.000  0.000
   15  0.000  0.000  0.000  0.000
   16  0.000  0.000  0.000  0.000
   17  0.000  0.000  0.000  0.000
   18  0.000  0.000  0.000  0.000
   19  0.000  0.000  0.000  0.000
   20  0.000  0.000  0.000  0.000
   21  0.000  0.000  0.000  0.000
   22  0.000  0.000  0.000  0.000
   23  0.000  0.000  0.000  0.000
   24  0.000  0.000  0.000  0.000
   25  0.000  0.000  0.000  0.000
   26  0.000  0.000  0.000  0.000
   27  0.000  0.000  0.000  0.000
   28  0.000  0.000  0.000  0.000
   29  0.000  0.000  0.000  0.000
   30  0.000  0.000  0.000  0.000
   31  0.000  0.000  0.000  0.000
   32  0.000  0.000  0.000  0.000
   33  0.000  0.000  0.000  0.000
   34  0.000  0.000  0.000  0.000
   35  0.000  0.000  0.000  0.000
   36  0.000  0.000  0.000  0.000
   37  0.000  0.000  0.000  0.000
   38  0.000  0.000  0.000  0.000
   39  0.000  0.000  0.000  0.000
tot    0.888  0.000  0.000  0.888

band     4 # energy  -20.81247588 # occ.  2.00000000

ion      s      p      d    tot
    1  0.000  0.000  0.000  0.000
    2  0.000  0.000  0.000  0.000
    3  0.000  0.000  0.000  0.000
    4  0.887  0.000  0.000  0.887
    5  0.000  0.000  0.000  0.000
    6  0.000  0.000  0.000  0.000
    7  0.000  0.000  0.000  0.000
    8  0.000  0.000  0.000  0.000
    9  0.000  0.000  0.000  0.000
   10  0.000  0.000  0.000  0.000
   11  0.000  0.000  0.000  0.000
   12  0.000  0.000  0.000  0.000
   13  0.000  0.000  0.000  0.000
   14  0.000  0.000  0.000  0.000
   15  0.000  0.000  0.000  0.000
   16  0.000  0.000  0.000  0.000
   17  0.000  0.000  0.000  0.000
   18  0.000  0.000  0.000  0.000
   19  0.000  0.000  0.000  0.000
   20  0.000  0.000  0.000  0.000
   21  0.000  0.000  0.000  0.000
   22  0.000  0.000  0.000  0.000
   23  0.000  0.000  0.000  0.000
   24  0.000  0.000  0.000  0.000
   25  0.000  0.000  0.000  0.000
   26  0.000  0.000  0.000  0.000
   27  0.000  0.000  0.000  0.000
   28  0.000  0.000  0.000  0.000
   29  0.000  0.000  0.000  0.000
   30  0.000  0.000  0.000  0.000
   31  0.000  0.000  0.000  0.000
   32  0.000  0.000  0.000  0.000
   33  0.000  0.000  0.000  0.000
   34  0.000  0.000  0.000  0.000
   35  0.000  0.000  0.000  0.000
   36  0.000  0.000  0.000  0.000
   37  0.000  0.000  0.000  0.000
   38  0.000  0.000  0.000  0.000
   39  0.000  0.000  0.000  0.000
tot    0.888  0.000  0.000  0.888

band     5 # energy  -20.77673434 # occ.  2.00000000

ion      s      p      d    tot
    1  0.000  0.000  0.000  0.000
    2  0.888  0.000  0.000  0.888
    3  0.000  0.000  0.000  0.000
    4  0.000  0.000  0.000  0.000
    5  0.000  0.000  0.000  0.000
    6  0.000  0.000  0.000  0.000
    7  0.000  0.000  0.000  0.000
    8  0.000  0.000  0.000  0.000
    9  0.000  0.000  0.000  0.000
   10  0.000  0.000  0.000  0.000
   11  0.000  0.000  0.000  0.000
   12  0.000  0.000  0.000  0.000
   13  0.000  0.000  0.000  0.000
   14  0.000  0.000  0.000  0.000
   15  0.000  0.000  0.000  0.000
   16  0.000  0.000  0.000  0.000
   17  0.000  0.000  0.000  0.000
   18  0.000  0.000  0.000  0.000
   19  0.000  0.000  0.000  0.000
   20  0.000  0.000  0.000  0.000
   21  0.000  0.000  0.000  0.000
   22  0.000  0.000  0.000  0.000
   23  0.000  0.000  0.000  0.000
   24  0.000  0.000  0.000  0.000
   25  0.000  0.000  0.000  0.000
   26  0.000  0.000  0.000  0.000
   27  0.000  0.000  0.000  0.000
   28  0.000  0.000  0.000  0.000
   29  0.000  0.000  0.000  0.000
   30  0.000  0.000  0.000  0.000
   31  0.000  0.000  0.000  0.000
   32  0.000  0.000  0.000  0.000
   33  0.000  0.000  0.000  0.000
   34  0.000  0.000  0.000  0.000
   35  0.000  0.000  0.000  0.000
   36  0.000  0.000  0.000  0.000
   37  0.000  0.000  0.000  0.000
   38  0.000  0.000  0.000  0.000
   39  0.000  0.000  0.000  0.000
tot    0.888  0.000  0.000  0.888

band     6 # energy  -20.62757623 # occ.  2.00000000

ion      s      p      d    tot
    1  0.000  0.000  0.000  0.000
    2  0.000  0.000  0.000  0.000
    3  0.000  0.000  0.000  0.000
    4  0.000  0.000  0.000  0.000
    5  0.000  0.000  0.000  0.000
    6  0.888  0.000  0.000  0.888
    7  0.000  0.000  0.000  0.000
    8  0.000  0.000  0.000  0.000
    9  0.000  0.000  0.000  0.000
   10  0.000  0.000  0.000  0.000
   11  0.000  0.000  0.000  0.000
   12  0.000  0.000  0.000  0.000
   13  0.000  0.000  0.000  0.000
   14  0.000  0.000  0.000  0.000
   15  0.000  0.000  0.000  0.000
   16  0.000  0.000  0.000  0.000
   17  0.000  0.000  0.000  0.000
   18  0.000  0.000  0.000  0.000
   19  0.000  0.000  0.000  0.000
   20  0.000  0.000  0.000  0.000
   21  0.000  0.000  0.000  0.000
   22  0.000  0.000  0.000  0.000
   23  0.000  0.000  0.000  0.000
   24  0.000  0.000  0.000  0.000
   25  0.000  0.000  0.000  0.000
   26  0.000  0.000  0.000  0.000
   27  0.000  0.000  0.000  0.000
   28  0.000  0.000  0.000  0.000
   29  0.000  0.000  0.000  0.000
   30  0.000  0.000  0.000  0.000
   31  0.000  0.000  0.000  0.000
   32  0.000  0.000  0.000  0.000
   33  0.000  0.000  0.000  0.000
   34  0.000  0.000  0.000  0.000
   35  0.000  0.000  0.000  0.000
   36  0.000  0.000  0.000  0.000
   37  0.000  0.000  0.000  0.000
   38  0.000  0.000  0.000  0.000
   39  0.000  0.000  0.000  0.000
tot    0.888  0.000  0.000  0.888

band     7 # energy  -20.43443197 # occ.  2.00000000

ion      s      p      d    tot
    1  0.000  0.000  0.000  0.000
    2  0.000  0.000  0.000  0.000
    3  0.000  0.000  0.000  0.000
    4  0.000  0.000  0.000  0.000
    5  0.000  0.000  0.000  0.000
    6  0.000  0.000  0.000  0.000
    7  0.888  0.000  0.000  0.888
    8  0.000  0.000  0.000  0.000
    9  0.000  0.000  0.000  0.000
   10  0.000  0.000  0.000  0.000
   11  0.000  0.000  0.000  0.000
   12  0.000  0.000  0.000  0.000
   13  0.000  0.000  0.000  0.000
   14  0.000  0.000  0.000  0.000
   15  0.000  0.000  0.000  0.000
   16  0.000  0.000  0.000  0.000
   17  0.000  0.000  0.000  0.000
   18  0.000  0.000  0.000  0.000
   19  0.000  0.000  0.000  0.000
   20  0.000  0.000  0.000  0.000
   21  0.000  0.000  0.000  0.000
   22  0.000  0.000  0.000  0.000
   23  0.000  0.000  0.000  0.000
   24  0.000  0.000  0.000  0.000
   25  0.000  0.000  0.000  0.000
   26  0.000  0.000  0.000  0.000
   27  0.000  0.000  0.000  0.000
   28  0.000  0.000  0.000  0.000
   29  0.000  0.000  0.000  0.000
   30  0.000  0.000  0.000  0.000
   31  0.000  0.000  0.000  0.000
   32  0.000  0.000  0.000  0.000
   33  0.000  0.000  0.000  0.000
   34  0.000  0.000  0.000  0.000
   35  0.000  0.000  0.000  0.000
   36  0.000  0.000  0.000  0.000
   37  0.000  0.000  0.000  0.000
   38  0.000  0.000  0.000  0.000
   39  0.000  0.000  0.000  0.000
tot    0.888  0.000  0.000  0.888

band     8 # energy  -20.09061169 # occ.  2.00000000

ion      s      p      d    tot
    1  0.000  0.000  0.000  0.000
    2  0.000  0.000  0.000  0.000
    3  0.885  0.000  0.000  0.885
    4  0.000  0.000  0.000  0.000
    5  0.000  0.000  0.000  0.000
    6  0.000  0.000  0.000  0.000
    7  0.000  0.000  0.000  0.000
    8  0.000  0.000  0.000  0.000
    9  0.000  0.000  0.000  0.000
   10  0.000  0.000  0.000  0.000
   11  0.000  0.000  0.000  0.000
   12  0.000  0.000  0.000  0.000
   13  0.000  0.000  0.000  0.000
   14  0.000  0.000  0.000  0.000
   15  0.000  0.000  0.000  0.000
   16  0.000  0.000  0.000  0.000
   17  0.000  0.000  0.000  0.000
   18  0.000  0.000  0.000  0.000
   19  0.000  0.000  0.000  0.000
   20  0.000  0.000  0.000  0.000
   21  0.000  0.000  0.000  0.000
   22  0.000  0.000  0.000  0.000
   23  0.000  0.000  0.000  0.000
   24  0.000  0.000  0.000  0.000
   25  0.000  0.000  0.000  0.000
   26  0.000  0.000  0.000  0.000
   27  0.000  0.000  0.000  0.000
   28  0.000  0.000  0.000  0.000
   29  0.000  0.000  0.000  0.000
   30  0.000  0.000  0.000  0.000
   31  0.000  0.000  0.000  0.000
   32  0.000  0.000  0.000  0.000
   33  0.000  0.000  0.000  0.000
   34  0.000  0.000  0.000  0.000
   35  0.000  0.000  0.000  0.000
   36  0.000  0.000  0.000  0.000
   37  0.000  0.000  0.000  0.000
   38  0.000  0.000  0.000  0.000
   39  0.003  0.001  0.000  0.003
tot    0.888  0.001  0.000  0.889

band     9 # energy  -16.91140920 # occ.  2.00000000

ion      s      p      d    tot
    1  0.000  0.000  0.000  0.000
    2  0.000  0.000  0.000  0.000
    3  0.000  0.000  0.000  0.000
    4  0.000  0.000  0.000  0.000
    5  0.000  0.000  0.000  0.000
    6  0.000  0.000  0.000  0.000
    7  0.000  0.000  0.000  0.000
    8  0.000  0.000  0.000  0.000
    9  0.000  0.000  0.000  0.000
   10  0.000  0.000  0.362  0.362
   11  0.000  0.000  0.000  0.000
   12  0.000  0.000  0.105  0.105
   13  0.000  0.000  0.000  0.000
   14  0.000  0.000  0.105  0.105
   15  0.000  0.000  0.000  0.000
   16  0.000  0.000  0.362  0.362
   17  0.000  0.000  0.000  0.000
   18  0.000  0.000  0.000  0.000
   19  0.017  0.000  0.000  0.017
   20  0.000  0.000  0.000  0.000
   21  0.000  0.000  0.000  0.000
   22  0.005  0.000  0.000  0.005
   23  0.000  0.000  0.000  0.000
   24  0.001  0.000  0.000  0.001
   25  0.000  0.000  0.000  0.000
   26  0.000  0.000  0.000  0.000
   27  0.000  0.000  0.000  0.000
   28  0.000  0.000  0.000  0.000
   29  0.000  0.000  0.000  0.000
   30  0.001  0.000  0.000  0.001
   31  0.000  0.000  0.000  0.000
   32  0.001  0.000  0.000  0.001
   33  0.000  0.000  0.000  0.000
   34  0.000  0.000  0.000  0.000
   35  0.000  0.000  0.000  0.000
   36  0.001  0.000  0.000  0.001
   37  0.000  0.000  0.000  0.000
   38  0.000  0.000  0.000  0.000
   39  0.000  0.000  0.000  0.000
tot    0.029  0.000  0.936  0.965

band    10 # energy  -16.89913846 # occ.  2.00000000

ion      s      p      d    tot
    1  0.000  0.000  0.000  0.000
    2  0.000  0.000  0.000  0.000
    3  0.000  0.000  0.000  0.000
    4  0.000  0.000  0.000  0.000
    5  0.000  0.000  0.000  0.000
    6  0.000  0.000  0.000  0.000
    7  0.000  0.000  0.000  0.000
    8  0.000  0.000  0.000  0.000
    9  0.000  0.000  0.000  0.000
   10  0.000  0.000  0.108  0.108
   11  0.000  0.000  0.000  0.000
   12  0.000  0.000  0.361  0.361
   13  0.000  0.000  0.000  0.000
   14  0.000  0.000  0.361  0.361
   15  0.000  0.000  0.000  0.000
   16  0.000  0.000  0.108  0.108
   17  0.000  0.000  0.000  0.000
   18  0.000  0.000  0.000  0.000
   19  0.005  0.000  0.000  0.005
   20  0.000  0.000  0.000  0.000
   21  0.000  0.000  0.000  0.000
   22  0.018  0.000  0.000  0.018
   23  0.000  0.000  0.000  0.000
   24  0.000  0.000  0.000  0.000
   25  0.000  0.000  0.000  0.000
   26  0.001  0.000  0.000  0.001
   27  0.000  0.000  0.000  0.000
   28  0.001  0.000  0.000  0.001
   29  0.000  0.000  0.000  0.000
   30  0.000  0.000  0.000  0.000
   31  0.000  0.000  0.000  0.000
   32  0.000  0.000  0.000  0.000
   33  0.000  0.000  0.000  0.000
   34  0.001  0.000  0.000  0.001
   35  0.000  0.000  0.000  0.000
   36  0.000  0.000  0.000  0.000
   37  0.000  0.000  0.000  0.000
   38  0.001  0.000  0.000  0.001
   39  0.000  0.000  0.000  0.000
tot    0.027  0.001  0.939  0.966

band    11 # energy  -16.86443320 # occ.  2.00000000

ion      s      p      d    tot
    1  0.000  0.000  0.000  0.000
    2  0.000  0.000  0.000  0.000
    3  0.000  0.000  0.000  0.000
    4  0.000  0.000  0.000  0.000
    5  0.000  0.000  0.000  0.000
    6  0.000  0.000  0.000  0.000
    7  0.000  0.000  0.000  0.000
    8  0.000  0.000  0.000  0.000
    9  0.000  0.000  0.000  0.000
   10  0.000  0.000  0.351  0.351
   11  0.000  0.000  0.000  0.000
   12  0.000  0.000  0.130  0.130
   13  0.000  0.000  0.000  0.000
   14  0.000  0.000  0.130  0.130
   15  0.000  0.000  0.000  0.000
   16  0.000  0.000  0.350  0.351
   17  0.000  0.000  0.000  0.000
   18  0.000  0.000  0.000  0.000
   19  0.000  0.001  0.000  0.001
   20  0.000  0.000  0.000  0.000
   21  0.000  0.000  0.000  0.000
   22  0.000  0.000  0.000  0.000
   23  0.000  0.000  0.000  0.000
   24  0.002  0.000  0.000  0.002
   25  0.000  0.000  0.000  0.000
   26  0.000  0.000  0.000  0.000
   27  0.000  0.000  0.000  0.000
   28  0.000  0.000  0.000  0.000
   29  0.000  0.000  0.000  0.000
   30  0.003  0.000  0.000  0.003
   31  0.000  0.000  0.000  0.000
   32  0.002  0.000  0.000  0.002
   33  0.000  0.000  0.000  0.000
   34  0.000  0.000  0.000  0.000
   35  0.000  0.000  0.000  0.000
   36  0.003  0.000  0.000  0.003
   37  0.000  0.000  0.000  0.000
   38  0.000  0.000  0.000  0.000
   39  0.000  0.000  0.000  0.000
tot    0.010  0.001  0.961  0.972

band    12 # energy  -16.85106810 # occ.  2.00000000

ion      s      p      d    tot
    1  0.000  0.000  0.000  0.000
    2  0.000  0.000  0.000  0.000
    3  0.000  0.000  0.000  0.000
    4  0.000  0.000  0.000  0.000
    5  0.000  0.000  0.000  0.000
    6  0.000  0.000  0.000  0.000
    7  0.000  0.000  0.000  0.000
    8  0.000  0.000  0.000  0.000
    9  0.000  0.000  0.000  0.000
   10  0.000  0.000  0.168  0.168
   11  0.000  0.000  0.000  0.000
   12  0.000  0.000  0.314  0.314
   13  0.000  0.000  0.000  0.000
   14  0.000  0.000  0.314  0.314
   15  0.000  0.000  0.000  0.000
   16  0.000  0.000  0.168  0.168
   17  0.000  0.000  0.000  0.000
   18  0.000  0.000  0.000  0.000
   19  0.000  0.000  0.000  0.000
   20  0.000  0.000  0.000  0.000
   21  0.000  0.000  0.000  0.000
   22  0.000  0.001  0.000  0.001
   23  0.000  0.000  0.000  0.000
   24  0.000  0.000  0.000  0.000
   25  0.001  0.000  0.000  0.001
   26  0.001  0.000  0.000  0.001
   27  0.001  0.000  0.000  0.001
   28  0.001  0.000  0.000  0.001
   29  0.000  0.000  0.000  0.000
   30  0.000  0.000  0.000  0.000
   31  0.000  0.000  0.000  0.000
   32  0.000  0.000  0.000  0.000
   33  0.001  0.000  0.000  0.001
   34  0.001  0.000  0.000  0.001
   35  0.000  0.000  0.000  0.000
   36  0.000  0.000  0.000  0.000
   37  0.001  0.000  0.000  0.001
   38  0.001  0.000  0.000  0.001
   39  0.000  0.000  0.000  0.000
tot    0.007  0.002  0.965  0.973

band    13 # energy  -16.83430974 # occ.  2.00000000

ion      s      p      d    tot
    1  0.000  0.000  0.000  0.000
    2  0.000  0.000  0.000  0.000
    3  0.000  0.000  0.000  0.000
    4  0.000  0.000  0.000  0.000
    5  0.000  0.000  0.000  0.000
    6  0.000  0.000  0.000  0.000
    7  0.000  0.000  0.000  0.000
    8  0.000  0.000  0.000  0.000
    9  0.000  0.000  0.000  0.000
   10  0.000  0.000  0.291  0.291
   11  0.000  0.000  0.001  0.001
   12  0.000  0.000  0.179  0.179
   13  0.000  0.000  0.001  0.001
   14  0.000  0.000  0.179  0.179
   15  0.000  0.000  0.000  0.000
   16  0.000  0.000  0.291  0.291
   17  0.000  0.000  0.000  0.000
   18  0.000  0.000  0.000  0.000
   19  0.000  0.000  0.000  0.000
   20  0.000  0.000  0.000  0.000
   21  0.000  0.000  0.000  0.000
   22  0.000  0.000  0.000  0.000
   23  0.000  0.000  0.000  0.000
   24  0.002  0.000  0.000  0.003
   25  0.002  0.000  0.000  0.002
   26  0.001  0.000  0.000  0.001
   27  0.001  0.000  0.000  0.002
   28  0.001  0.000  0.000  0.001
   29  0.000  0.000  0.000  0.000
   30  0.003  0.000  0.000  0.004
   31  0.000  0.000  0.000  0.000
   32  0.002  0.000  0.000  0.003
   33  0.002  0.000  0.000  0.002
   34  0.001  0.000  0.000  0.001
   35  0.000  0.000  0.000  0.000
   36  0.003  0.000  0.000  0.004
   37  0.001  0.000  0.000  0.002
   38  0.001  0.000  0.000  0.001
   39  0.000  0.000  0.000  0.000
tot    0.022  0.001  0.944  0.967

band    14 # energy  -16.83200733 # occ.  2.00000000

ion      s      p      d    tot
    1  0.000  0.000  0.000  0.000
    2  0.000  0.000  0.000  0.000
    3  0.000  0.000  0.000  0.000
    4  0.000  0.000  0.000  0.000
    5  0.000  0.000  0.000  0.000
    6  0.000  0.000  0.000  0.000
    7  0.000  0.000  0.000  0.000
    8  0.000  0.000  0.000  0.000
    9  0.000  0.000  0.001  0.001
   10  0.000  0.000  0.251  0.251
   11  0.000  0.000  0.001  0.001
   12  0.000  0.000  0.221  0.221
   13  0.000  0.000  0.001  0.001
   14  0.000  0.000  0.221  0.221
   15  0.000  0.000  0.001  0.001
   16  0.000  0.000  0.251  0.251
   17  0.000  0.000  0.000  0.000
   18  0.000  0.000  0.000  0.000
   19  0.000  0.000  0.000  0.000
   20  0.000  0.000  0.000  0.000
   21  0.000  0.000  0.000  0.000
   22  0.000  0.000  0.000  0.000
   23  0.000  0.000  0.000  0.000
   24  0.002  0.000  0.000  0.002
   25  0.002  0.000  0.000  0.002
   26  0.001  0.000  0.000  0.001
   27  0.001  0.000  0.000  0.001
   28  0.001  0.000  0.000  0.002
   29  0.000  0.000  0.000  0.000
   30  0.002  0.000  0.000  0.002
   31  0.000  0.000  0.000  0.000
   32  0.002  0.000  0.000  0.002
   33  0.002  0.000  0.000  0.002
   34  0.001  0.000  0.000  0.001
   35  0.000  0.000  0.000  0.000
   36  0.002  0.000  0.000  0.002
   37  0.001  0.000  0.000  0.001
   38  0.001  0.000  0.000  0.002
   39  0.000  0.000  0.000  0.000
tot    0.019  0.001  0.948  0.968

band    15 # energy  -16.79872754 # occ.  2.00000000

ion      s      p      d    tot
    1  0.000  0.000  0.000  0.000
    2  0.000  0.000  0.000  0.000
    3  0.000  0.000  0.000  0.000
    4  0.000  0.000  0.000  0.000
    5  0.000  0.000  0.000  0.000
    6  0.000  0.000  0.000  0.000
    7  0.000  0.000  0.000  0.000
    8  0.000  0.000  0.000  0.000
    9  0.000  0.000  0.001  0.001
   10  0.000  0.000  0.179  0.179
   11  0.000  0.000  0.000  0.000
   12  0.000  0.000  0.300  0.300
   13  0.000  0.000  0.000  0.000
   14  0.000  0.000  0.300  0.300
   15  0.000  0.000  0.001  0.001
   16  0.000  0.000  0.179  0.179
   17  0.000  0.000  0.000  0.000
   18  0.000  0.000  0.000  0.000
   19  0.000  0.000  0.000  0.000
   20  0.000  0.000  0.000  0.000
   21  0.000  0.000  0.000  0.000
   22  0.000  0.000  0.000  0.000
   23  0.000  0.000  0.000  0.000
   24  0.000  0.000  0.000  0.000
   25  0.001  0.000  0.000  0.001
   26  0.001  0.000  0.000  0.001
   27  0.001  0.000  0.000  0.001
   28  0.001  0.000  0.000  0.001
   29  0.000  0.000  0.000  0.000
   30  0.000  0.000  0.000  0.000
   31  0.000  0.000  0.000  0.000
   32  0.000  0.000  0.000  0.000
   33  0.001  0.000  0.000  0.001
   34  0.001  0.000  0.000  0.001
   35  0.000  0.000  0.000  0.000
   36  0.000  0.000  0.000  0.000
   37  0.001  0.000  0.000  0.001
   38  0.001  0.000  0.000  0.001
   39  0.000  0.000  0.000  0.000
tot    0.009  0.002  0.962  0.972

band    16 # energy  -16.79711864 # occ.  2.00000000

ion      s      p      d    tot
    1  0.000  0.000  0.000  0.000
    2  0.000  0.000  0.000  0.000
    3  0.000  0.000  0.000  0.000
    4  0.000  0.000  0.000  0.000
    5  0.000  0.000  0.000  0.000
    6  0.000  0.000  0.000  0.000
    7  0.000  0.000  0.000  0.000
    8  0.000  0.000  0.000  0.000
    9  0.000  0.000  0.001  0.001
   10  0.000  0.000  0.185  0.185
   11  0.000  0.000  0.000  0.000
   12  0.000  0.000  0.296  0.296
   13  0.000  0.000  0.000  0.000
   14  0.000  0.000  0.296  0.296
   15  0.000  0.000  0.001  0.001
   16  0.000  0.000  0.185  0.185
   17  0.000  0.000  0.000  0.000
   18  0.000  0.000  0.000  0.000
   19  0.000  0.000  0.000  0.000
   20  0.000  0.000  0.000  0.000
   21  0.000  0.000  0.000  0.000
   22  0.000  0.000  0.000  0.000
   23  0.000  0.000  0.000  0.000
   24  0.000  0.000  0.000  0.000
   25  0.001  0.000  0.000  0.001
   26  0.001  0.000  0.000  0.001
   27  0.001  0.000  0.000  0.001
   28  0.001  0.000  0.000  0.001
   29  0.000  0.000  0.000  0.000
   30  0.000  0.000  0.000  0.000
   31  0.000  0.000  0.000  0.000
   32  0.000  0.000  0.000  0.000
   33  0.001  0.000  0.000  0.001
   34  0.001  0.000  0.000  0.001
   35  0.000  0.000  0.000  0.000
   36  0.000  0.000  0.000  0.000
   37  0.001  0.000  0.000  0.001
   38  0.001  0.000  0.000  0.001
   39  0.000  0.000  0.000  0.000
tot    0.007  0.002  0.964  0.973

band    17 # energy  -16.78459452 # occ.  2.00000000

ion      s      p      d    tot
    1  0.000  0.000  0.000  0.000
    2  0.000  0.000  0.000  0.000
    3  0.000  0.000  0.000  0.000
    4  0.000  0.000  0.000  0.000
    5  0.000  0.000  0.000  0.000
    6  0.000  0.000  0.000  0.000
    7  0.000  0.000  0.000  0.000
    8  0.000  0.000  0.000  0.000
    9  0.000  0.000  0.000  0.000
   10  0.000  0.000  0.486  0.486
   11  0.000  0.000  0.000  0.000
   12  0.000  0.000  0.003  0.003
   13  0.000  0.000  0.000  0.000
   14  0.000  0.000  0.003  0.003
   15  0.000  0.000  0.000  0.000
   16  0.000  0.000  0.486  0.486
   17  0.000  0.000  0.000  0.000
   18  0.000  0.000  0.000  0.000
   19  0.000  0.000  0.000  0.000
   20  0.000  0.000  0.000  0.000
   21  0.000  0.000  0.000  0.000
   22  0.000  0.000  0.000  0.000
   23  0.000  0.000  0.000  0.000
   24  0.000  0.000  0.000  0.000
   25  0.000  0.000  0.000  0.000
   26  0.000  0.000  0.000  0.000
   27  0.000  0.000  0.000  0.000
   28  0.000  0.000  0.000  0.000
   29  0.000  0.000  0.000  0.000
   30  0.000  0.000  0.000  0.000
   31  0.000  0.000  0.000  0.000
   32  0.000  0.000  0.000  0.000
   33  0.000  0.000  0.000  0.000
   34  0.000  0.000  0.000  0.000
   35  0.000  0.000  0.000  0.000
   36  0.000  0.000  0.000  0.000
   37  0.000  0.000  0.000  0.000
   38  0.000  0.000  0.000  0.000
   39  0.000  0.000  0.000  0.000
tot    0.000  0.000  0.978  0.978

band    18 # energy  -16.78386753 # occ.  2.00000000

ion      s      p      d    tot
    1  0.000  0.000  0.000  0.000
    2  0.000  0.000  0.000  0.000
    3  0.000  0.000  0.000  0.000
    4  0.000  0.000  0.000  0.000
    5  0.000  0.000  0.000  0.000
    6  0.000  0.000  0.000  0.000
    7  0.000  0.000  0.000  0.000
    8  0.000  0.000  0.000  0.000
    9  0.000  0.000  0.000  0.000
   10  0.000  0.000  0.485  0.485
   11  0.000  0.000  0.000  0.000
   12  0.000  0.000  0.004  0.004
   13  0.000  0.000  0.000  0.000
   14  0.000  0.000  0.004  0.004
   15  0.000  0.000  0.000  0.000
   16  0.000  0.000  0.485  0.485
   17  0.000  0.000  0.000  0.000
   18  0.000  0.000  0.000  0.000
   19  0.000  0.000  0.000  0.000
   20  0.000  0.000  0.000  0.000
   21  0.000  0.000  0.000  0.000
   22  0.000  0.000  0.000  0.000
   23  0.000  0.000  0.000  0.000
   24  0.000  0.000  0.000  0.000
   25  0.000  0.000  0.000  0.000
   26  0.000  0.000  0.000  0.000
   27  0.000  0.000  0.000  0.000
   28  0.000  0.000  0.000  0.000
   29  0.000  0.000  0.000  0.000
   30  0.000  0.000  0.000  0.000
   31  0.000  0.000  0.000  0.000
   32  0.000  0.000  0.000  0.000
   33  0.000  0.000  0.000  0.000
   34  0.000  0.000  0.000  0.000
   35  0.000  0.000  0.000  0.000
   36  0.000  0.000  0.000  0.000
   37  0.000  0.000  0.000  0.000
   38  0.000  0.000  0.000  0.000
   39  0.000  0.000  0.000  0.000
tot    0.000  0.000  0.978  0.978

band    19 # energy  -16.77698162 # occ.  2.00000000

ion      s      p      d    tot
    1  0.000  0.000  0.000  0.000
    2  0.000  0.000  0.000  0.000
    3  0.000  0.000  0.000  0.000
    4  0.000  0.000  0.000  0.000
    5  0.000  0.000  0.000  0.000
    6  0.000  0.000  0.000  0.000
    7  0.000  0.000  0.000  0.000
    8  0.000  0.000  0.000  0.000
    9  0.000  0.000  0.000  0.000
   10  0.000  0.000  0.231  0.231
   11  0.000  0.000  0.000  0.000
   12  0.000  0.000  0.257  0.257
   13  0.000  0.000  0.000  0.000
   14  0.000  0.000  0.257  0.257
   15  0.000  0.000  0.000  0.000
   16  0.000  0.000  0.231  0.231
   17  0.000  0.000  0.000  0.000
   18  0.000  0.000  0.000  0.000
   19  0.000  0.000  0.000  0.000
   20  0.000  0.000  0.000  0.000
   21  0.000  0.000  0.000  0.000
   22  0.000  0.000  0.000  0.000
   23  0.000  0.000  0.000  0.000
   24  0.000  0.000  0.000  0.000
   25  0.000  0.000  0.000  0.000
   26  0.000  0.000  0.000  0.000
   27  0.000  0.000  0.000  0.000
   28  0.000  0.000  0.000  0.000
   29  0.000  0.000  0.000  0.000
   30  0.000  0.000  0.000  0.000
   31  0.000  0.000  0.000  0.000
   32  0.000  0.000  0.000  0.000
   33  0.000  0.000  0.000  0.000
   34  0.000  0.000  0.000  0.000
   35  0.000  0.000  0.000  0.000
   36  0.000  0.000  0.000  0.000
   37  0.000  0.000  0.000  0.000
   38  0.000  0.000  0.000  0.000
   39  0.000  0.000  0.000  0.000
tot    0.000  0.000  0.977  0.978

band    20 # energy  -16.77632147 # occ.  2.00000000

ion      s      p      d    tot
    1  0.000  0.000  0.000  0.000
    2  0.000  0.000  0.000  0.000
    3  0.000  0.000  0.000  0.000
    4  0.000  0.000  0.000  0.000
    5  0.000  0.000  0.000  0.000
    6  0.000  0.000  0.000  0.000
    7  0.000  0.000  0.000  0.000
    8  0.000  0.000  0.000  0.000
    9  0.000  0.000  0.000  0.000
   10  0.000  0.000  0.261  0.261
   11  0.000  0.000  0.000  0.000
   12  0.000  0.000  0.228  0.228
   13  0.000  0.000  0.000  0.000
   14  0.000  0.000  0.228  0.228
   15  0.000  0.000  0.000  0.000
   16  0.000  0.000  0.261  0.261
   17  0.000  0.000  0.000  0.000
   18  0.000  0.000  0.000  0.000
   19  0.000  0.000  0.000  0.000
   20  0.000  0.000  0.000  0.000
   21  0.000  0.000  0.000  0.000
   22  0.000  0.000  0.000  0.000
   23  0.000  0.000  0.000  0.000
   24  0.000  0.000  0.000  0.000
   25  0.000  0.000  0.000  0.000
   26  0.000  0.000  0.000  0.000
   27  0.000  0.000  0.000  0.000
   28  0.000  0.000  0.000  0.000
   29  0.000  0.000  0.000  0.000
   30  0.000  0.000  0.000  0.000
   31  0.000  0.000  0.000  0.000
   32  0.000  0.000  0.000  0.000
   33  0.000  0.000  0.000  0.000
   34  0.000  0.000  0.000  0.000
   35  0.000  0.000  0.000  0.000
   36  0.000  0.000  0.000  0.000
   37  0.000  0.000  0.000  0.000
   38  0.000  0.000  0.000  0.000
   39  0.000  0.000  0.000  0.000
tot    0.000  0.000  0.977  0.978

band    21 # energy  -16.77571645 # occ.  2.00000000

ion      s      p      d    tot
    1  0.000  0.000  0.000  0.000
    2  0.000  0.000  0.000  0.000
    3  0.000  0.000  0.000  0.000
    4  0.000  0.000  0.000  0.000
    5  0.000  0.000  0.000  0.000
    6  0.000  0.000  0.000  0.000
    7  0.000  0.000  0.000  0.000
    8  0.000  0.000  0.000  0.000
    9  0.000  0.000  0.000  0.000
   10  0.000  0.000  0.262  0.262
   11  0.000  0.000  0.000  0.000
   12  0.000  0.000  0.226  0.226
   13  0.000  0.000  0.000  0.000
   14  0.000  0.000  0.227  0.227
   15  0.000  0.000  0.000  0.000
   16  0.000  0.000  0.262  0.262
   17  0.000  0.000  0.000  0.000
   18  0.000  0.000  0.000  0.000
   19  0.000  0.000  0.000  0.000
   20  0.000  0.000  0.000  0.000
   21  0.000  0.000  0.000  0.000
   22  0.000  0.000  0.000  0.000
   23  0.000  0.000  0.000  0.000