<?xml version="1.0" encoding="ISO-8859-1"?>
<modeling>
 <generator>
  <i name="program" type="string">vasp </i>
  <i name="version" type="string">5.4.4.18Apr17-6-g9f103f2a35  </i>
  <i name="subversion" type="string">(build Jun 22 2020 09:27:21) complex            parallel </i>
  <i name="platform" type="string">tx2_gcc-7.3_libsci-18.07_cray-fftw-3.3.8 </i>
  <i name="date" type="string">2021 10 11 </i>
  <i name="time" type="string">19:32:32 </i>
 </generator>
 <incar>
  <i type="string" name="SYSTEM"> CsPbBr3 cubic bulk</i>
  <i type="string" name="PREC">accurate</i>
  <i type="string" name="ALGO"> NORMAL   ! Electronic minimisation algo</i>
  <i type="logical" name="ADDGRID"> T  </i>
  <i type="int" name="ISPIN">     1</i>
  <i type="int" name="NELM">   200</i>
  <i type="int" name="IBRION">     2</i>
  <i name="EDIFF">      0.00000100</i>
  <i name="EDIFFG">     -0.01000000</i>
  <i type="int" name="NSW">     0</i>
  <i type="int" name="ISIF">     2</i>
  <i type="int" name="ISYM">     0</i>
  <i name="ENCUT">    300.00000000</i>
  <i name="POTIM">      0.50000000</i>
  <i name="NUPDOWN">      0.00000000</i>
  <i name="NELECT">    344.00000000</i>
  <i type="string" name="LREAL"> AUTO</i>
  <i type="int" name="ISMEAR">     0</i>
  <i name="SIGMA">      0.01000000</i>
  <i type="logical" name="LWAVE"> F  </i>
  <i type="logical" name="LCHARG"> F  </i>
  <i type="logical" name="LVHAR"> T  </i>
  <i type="int" name="LORBIT">    10</i>
  <i type="logical" name="LASPH"> T  </i>
  <v type="int" name="KPOINT_BSE">    -1     0     0     0</v>
  <i type="int" name="NELM">   200</i>
  <i type="string" name="METAGGA"> SCAN       ! PBE exchange-correlation</i>
  <i type="logical" name="LASPH"> T  </i>
 </incar>
 <structure name="primitive_cell" >
  <crystal>
   <varray name="basis" >
    <v>       8.45648900       0.00000000       8.04030100 </v>
    <v>       0.00000000      11.72984700       0.00000000 </v>
    <v>      -8.45648900       0.00000000       8.04030100 </v>
   </varray>
   <i name="volume">   1595.08833419 </i>
   <varray name="rec_basis" >
    <v>       0.05912619      -0.00000000       0.06218673 </v>
    <v>       0.00000000       0.08525260      -0.00000000 </v>
    <v>      -0.05912619       0.00000000       0.06218673 </v>
   </varray>
  </crystal>
  <varray name="positions" >
   <v>       0.26709900       0.25000000       0.19969400 </v>
   <v>       0.04970500       0.03231100       0.25321200 </v>
   <v>       0.04970500       0.46768900       0.25321200 </v>
   <v>      -0.47156600       0.25000000       0.03422400 </v>
   <v>       0.45557100       0.25000000       0.46827200 </v>
   <v>       0.24758400       0.46850100      -0.05020600 </v>
   <v>       0.24758400       0.03149800      -0.05020600 </v>
   <v>       0.45203300      -0.46289400       0.25039400 </v>
   <v>       0.45203300      -0.03710600       0.25039400 </v>
   <v>      -0.03307800       0.25000000      -0.03030900 </v>
   <v>       0.49994400       0.49955300       0.00022100 </v>
   <v>       0.49994400       0.00044700       0.00022000 </v>
   <v>      -0.00019900       0.49931800      -0.00081000 </v>
   <v>      -0.00019900       0.00068100      -0.00081000 </v>
   <v>       0.03372400       0.25000000      -0.45691500 </v>
   <v>       0.49919800       0.00558500       0.49915200 </v>
   <v>       0.49919800       0.49441500       0.49915200 </v>
   <v>       0.25222700      -0.04539000      -0.45334500 </v>
   <v>       0.25222700      -0.45461000      -0.45334500 </v>
   <v>       0.29564800       0.25000000      -0.26366700 </v>
   <v>       0.00156200       0.00577700      -0.49922400 </v>
   <v>       0.00156200       0.49422300      -0.49922400 </v>
   <v>      -0.21007200       0.25000000       0.22537300 </v>
   <v>       0.22808800      -0.25000000       0.27848600 </v>
   <v>      -0.25209800       0.46911300       0.44927100 </v>
   <v>      -0.25209800       0.03088700       0.44927100 </v>
   <v>       0.02591000      -0.25000000       0.03073100 </v>
   <v>      -0.44900000       0.03027600      -0.24848700 </v>
   <v>      -0.44900000       0.46972400      -0.24848700 </v>
   <v>      -0.24765900      -0.02937000       0.05000700 </v>
   <v>      -0.24765900      -0.47063000       0.05000700 </v>
   <v>       0.47171100      -0.25000000      -0.03006300 </v>
   <v>      -0.04891100      -0.46255100      -0.25474100 </v>
   <v>      -0.04891100      -0.03744900      -0.25474100 </v>
   <v>       0.21019700      -0.25000000      -0.21890200 </v>
   <v>      -0.29520800      -0.25000000       0.25802000 </v>
   <v>      -0.22889200       0.25000000      -0.28493400 </v>
   <v>      -0.24522100      -0.25000000       0.49623700 </v>
   <v>      -0.26747000      -0.25000000      -0.19368100 </v>
  </varray>
 </structure>
 <varray name="primitive_index" >
  <v type="int" >        1 </v>
  <v type="int" >       28 </v>
  <v type="int" >       38 </v>
  <v type="int" >       21 </v>
  <v type="int" >       19 </v>
  <v type="int" >       23 </v>
  <v type="int" >       31 </v>
  <v type="int" >       25 </v>
  <v type="int" >       33 </v>
  <v type="int" >       18 </v>
  <v type="int" >       13 </v>
  <v type="int" >       11 </v>
  <v type="int" >       15 </v>
  <v type="int" >        9 </v>
  <v type="int" >       22 </v>
  <v type="int" >       10 </v>
  <v type="int" >       16 </v>
  <v type="int" >       30 </v>
  <v type="int" >       36 </v>
  <v type="int" >        5 </v>
  <v type="int" >       12 </v>
  <v type="int" >       14 </v>
  <v type="int" >        6 </v>
  <v type="int" >        8 </v>
  <v type="int" >       24 </v>
  <v type="int" >       32 </v>
  <v type="int" >       20 </v>
  <v type="int" >       27 </v>
  <v type="int" >       37 </v>
  <v type="int" >       29 </v>
  <v type="int" >       35 </v>
  <v type="int" >       17 </v>
  <v type="int" >       26 </v>
  <v type="int" >       34 </v>
  <v type="int" >        4 </v>
  <v type="int" >        3 </v>
  <v type="int" >        2 </v>
  <v type="int" >       39 </v>
  <v type="int" >        7 </v>
 </varray>
 <kpoints>
  <generation param="Gamma">
   <v type="int" name="divisions">       2        2        2 </v>
   <v name="usershift">      0.00000000       0.00000000       0.00000000 </v>
   <v name="genvec1">      0.50000000       0.00000000       0.00000000 </v>
   <v name="genvec2">      0.00000000       0.50000000       0.00000000 </v>
   <v name="genvec3">      0.00000000       0.00000000       0.50000000 </v>
   <v name="shift">      0.00000000       0.00000000       0.00000000 </v>
  </generation>
  <varray name="kpointlist" >
   <v>       0.00000000       0.00000000       0.00000000 </v>
   <v>       0.50000000       0.00000000       0.00000000 </v>
   <v>       0.00000000       0.50000000       0.00000000 </v>
   <v>       0.50000000       0.50000000       0.00000000 </v>
   <v>       0.00000000       0.00000000       0.50000000 </v>
   <v>       0.50000000       0.00000000       0.50000000 </v>
   <v>       0.00000000       0.50000000       0.50000000 </v>
   <v>       0.50000000       0.50000000       0.50000000 </v>
  </varray>
  <varray name="weights" >
   <v>       0.12500000 </v>
   <v>       0.12500000 </v>
   <v>       0.12500000 </v>
   <v>       0.12500000 </v>
   <v>       0.12500000 </v>
   <v>       0.12500000 </v>
   <v>       0.12500000 </v>
   <v>       0.12500000 </v>
  </varray>
 </kpoints>
 <parameters>
  <separator name="general" >
   <i type="string" name="SYSTEM">CsPbBr3 cubic bulk</i>
   <i type="logical" name="LCOMPAT"> F  </i>
  </separator>
  <separator name="electronic" >
   <i type="string" name="PREC">accura</i>
   <i name="ENMAX">    300.00000000</i>
   <i name="ENAUG">    503.85200000</i>
   <i name="EDIFF">      0.00000100</i>
   <i type="int" name="IALGO">    38</i>
   <i type="int" name="IWAVPR">    10</i>
   <i type="int" name="NBANDS">   208</i>
   <i name="NELECT">    344.00000000</i>
   <i type="int" name="TURBO">     0</i>
   <i type="int" name="IRESTART">     0</i>
   <i type="int" name="NREBOOT">     0</i>
   <i type="int" name="NMIN">     0</i>
   <i name="EREF">      0.00000000</i>
   <separator name="electronic smearing" >
    <i type="int" name="ISMEAR">     0</i>
    <i name="SIGMA">      0.01000000</i>
    <i name="KSPACING">      0.50000000</i>
    <i type="logical" name="KGAMMA"> T  </i>
   </separator>
   <separator name="electronic projectors" >
    <i type="logical" name="LREAL"> T  </i>
    <v name="ROPT">     -0.00025000     -0.00025000     -0.00025000</v>
    <i type="int" name="LMAXPAW">  -100</i>
    <i type="int" name="LMAXMIX">     2</i>
    <i type="logical" name="NLSPLINE"> F  </i>
   </separator>
   <separator name="electronic startup" >
    <i type="int" name="ISTART">     0</i>
    <i type="int" name="ICHARG">     2</i>
    <i type="int" name="INIWAV">     1</i>
   </separator>
   <separator name="electronic spin" >
    <i type="int" name="ISPIN">     1</i>
    <i type="logical" name="LNONCOLLINEAR"> F  </i>
    <v name="MAGMOM">      0.00000000      0.00000000      0.00000000      0.00000000      0.00000000      0.00000000      0.00000000      0.00000000      0.00000000      0.00000000      0.00000000      0.00000000      0.00000000      0.00000000      0.00000000      0.00000000      0.00000000      0.00000000      0.00000000      0.00000000
      0.00000000      0.00000000      0.00000000      0.00000000      0.00000000      0.00000000      0.00000000      0.00000000      0.00000000      0.00000000      0.00000000      0.00000000      0.00000000      0.00000000      0.00000000      0.00000000      0.00000000      0.00000000      0.00000000</v>
    <i name="NUPDOWN">      0.00000000</i>
    <i type="logical" name="LSORBIT"> F  </i>
    <v name="SAXIS">      0.00000000      0.00000000      1.00000000</v>
    <i type="logical" name="LSPIRAL"> F  </i>
    <v name="QSPIRAL">      0.00000000      0.00000000      0.00000000</v>
    <i type="logical" name="LZEROZ"> F  </i>
   </separator>
   <separator name="electronic exchange-correlation" >
    <i type="logical" name="LASPH"> T  </i>
    <i type="logical" name="LMETAGGA"> F  </i>
   </separator>
   <separator name="electronic convergence" >
    <i type="int" name="NELM">   200</i>
    <i type="int" name="NELMDL">    -5</i>
    <i type="int" name="NELMIN">     2</i>
    <i name="ENINI">    300.00000000</i>
    <separator name="electronic convergence detail" >
     <i type="logical" name="LDIAG"> T  </i>
     <i type="logical" name="LSUBROT"> F  </i>
     <i name="WEIMIN">      0.00000000</i>
     <i name="EBREAK">      0.00000000</i>
     <i name="DEPER">      0.30000000</i>
     <i type="int" name="NRMM">     4</i>
     <i name="TIME">      0.40000000</i>
    </separator>
   </separator>
   <separator name="electronic mixer" >
    <i name="AMIX">      0.40000000</i>
    <i name="BMIX">      1.00000000</i>
    <i name="AMIN">      0.10000000</i>
    <i name="AMIX_MAG">      1.60000000</i>
    <i name="BMIX_MAG">      1.00000000</i>
    <separator name="electronic mixer details" >
     <i type="int" name="IMIX">     4</i>
     <i type="logical" name="MIXFIRST"> F  </i>
     <i type="int" name="MAXMIX">   -45</i>
     <i name="WC">    100.00000000</i>
     <i type="int" name="INIMIX">     1</i>
     <i type="int" name="MIXPRE">     1</i>
     <i type="int" name="MREMOVE">     5</i>
    </separator>
   </separator>
   <separator name="electronic dipolcorrection" >
    <i type="logical" name="LDIPOL"> F  </i>
    <i type="logical" name="LMONO"> F  </i>
    <i type="int" name="IDIPOL">     0</i>
    <i name="EPSILON">      1.00000000</i>
    <v name="DIPOL">   -100.00000000   -100.00000000   -100.00000000</v>
    <i name="EFIELD">      0.00000000</i>
   </separator>
  </separator>
  <separator name="grids" >
   <i type="int" name="NGX">    70</i>
   <i type="int" name="NGY">    70</i>
   <i type="int" name="NGZ">    70</i>
   <i type="int" name="NGXF">   140</i>
   <i type="int" name="NGYF">   140</i>
   <i type="int" name="NGZF">   140</i>
   <i type="logical" name="ADDGRID"> T  </i>
  </separator>
  <separator name="ionic" >
   <i type="int" name="NSW">     0</i>
   <i type="int" name="IBRION">    -1</i>
   <i type="int" name="MDALGO">     0</i>
   <i type="int" name="ISIF">     2</i>
   <i name="PSTRESS">      0.00000000</i>
   <i name="EDIFFG">     -0.01000000</i>
   <i type="int" name="NFREE">     1</i>
   <i name="POTIM">      0.50000000</i>
   <i name="SMASS">     -3.00000000</i>
   <i name="SCALEE">      1.00000000</i>
  </separator>
  <separator name="ionic md" >
   <i name="TEBEG">      0.00010000</i>
   <i name="TEEND">      0.00010000</i>
   <i type="int" name="NBLOCK">     1</i>
   <i type="int" name="KBLOCK">     1</i>
   <i type="int" name="NPACO">   256</i>
   <i name="APACO">     16.00000000</i>
  </separator>
  <separator name="symmetry" >
   <i type="int" name="ISYM">     0</i>
   <i name="SYMPREC">      0.00001000</i>
  </separator>
  <separator name="dos" >
   <i type="int" name="LORBIT">    10</i>
   <v name="RWIGS">     -1.00000000     -1.00000000     -1.00000000</v>
   <i type="int" name="NEDOS">   301</i>
   <i name="EMIN">     10.00000000</i>
   <i name="EMAX">    -10.00000000</i>
   <i name="EFERMI">      0.00000000</i>
  </separator>
  <separator name="writing" >
   <i type="int" name="NWRITE">     2</i>
   <i type="logical" name="LWAVE"> F  </i>
   <i type="logical" name="LDOWNSAMPLE"> F  </i>
   <i type="logical" name="LCHARG"> F  </i>
   <i type="logical" name="LPARD"> F  </i>
   <i type="logical" name="LVTOT"> F  </i>
   <i type="logical" name="LVHAR"> T  </i>
   <i type="logical" name="LELF"> F  </i>
   <i type="logical" name="LOPTICS"> F  </i>
   <v name="STM">      0.00000000      0.00000000      0.00000000      0.00000000      0.00000000      0.00000000      0.00000000</v>
  </separator>
  <separator name="performance" >
   <i type="int" name="NPAR">     8</i>
   <i type="int" name="NSIM">     4</i>
   <i type="int" name="NBLK">    -1</i>
   <i type="logical" name="LPLANE"> T  </i>
   <i type="logical" name="LSCALAPACK"> T  </i>
   <i type="logical" name="LSCAAWARE"> F  </i>
   <i type="logical" name="LSCALU"> F  </i>
   <i type="logical" name="LASYNC"> F  </i>
   <i type="logical" name="LORBITALREAL"> F  </i>
  </separator>
  <separator name="miscellaneous" >
   <i type="int" name="IDIOT">     3</i>
   <i type="int" name="ISPECIAL">     0</i>
   <i type="logical" name="LMUSIC"> F  </i>
   <v name="POMASS">    132.90000000    207.20000000     79.90400000</v>
   <v name="DARWINR">      0.00000000      0.00000000      0.00000000</v>
   <v name="DARWINV">      1.00000000      1.00000000      1.00000000</v>
   <i type="logical" name="LCORR"> T  </i>
  </separator>
  <i type="logical" name="GGA_COMPAT"> T  </i>
  <i type="logical" name="LBERRY"> F  </i>
  <i type="int" name="ICORELEVEL">     0</i>
  <i type="logical" name="LDAU"> F  </i>
  <i type="int" name="I_CONSTRAINED_M">     0</i>
  <separator name="electronic exchange-correlation" >
   <i type="string" name="GGA">--</i>
   <i type="int" name="VOSKOWN">     0</i>
   <i type="logical" name="LHFCALC"> F  </i>
   <i type="string" name="PRECFOCK"></i>
   <i type="logical" name="LSYMGRAD"> F  </i>
   <i type="logical" name="LHFONE"> F  </i>
   <i type="logical" name="LRHFCALC"> F  </i>
   <i type="logical" name="LTHOMAS"> F  </i>
   <i type="logical" name="LMODELHF"> F  </i>
   <i name="ENCUT4O">     -1.00000000</i>
   <i type="int" name="EXXOEP">     0</i>
   <i type="int" name="FOURORBIT">     0</i>
   <i name="AEXX">      0.00000000</i>
   <i name="HFALPHA">      0.00000000</i>
   <i name="MCALPHA">      0.00000000</i>
   <i name="ALDAX">      1.00000000</i>
   <i name="AGGAX">      1.00000000</i>
   <i name="ALDAC">      1.00000000</i>
   <i name="AGGAC">      1.00000000</i>
   <i type="int" name="NKREDX">     1</i>
   <i type="int" name="NKREDY">     1</i>
   <i type="int" name="NKREDZ">     1</i>
   <i type="logical" name="SHIFTRED"> F  </i>
   <i type="logical" name="ODDONLY"> F  </i>
   <i type="logical" name="EVENONLY"> F  </i>
   <i type="int" name="LMAXFOCK">     0</i>
   <i type="int" name="NMAXFOCKAE">     0</i>
   <i type="logical" name="LFOCKAEDFT"> F  </i>
   <i name="HFSCREEN">      0.00000000</i>
   <i name="HFSCREENC">      0.00000000</i>
   <i type="int" name="NBANDSGWLOW">     0</i>
  </separator>
  <separator name="vdW DFT" >
   <i type="logical" name="LUSE_VDW"> F  </i>
   <i name="Zab_VDW">     -0.84910000</i>
   <i name="PARAM1">      0.12340000</i>
   <i name="PARAM2">      1.00000000</i>
   <i name="PARAM3">      0.00000000</i>
  </separator>
  <separator name="model GW" >
   <i type="int" name="MODEL_GW">     0</i>
   <i name="MODEL_EPS0">     24.53982053</i>
   <i name="MODEL_ALPHA">      1.00000000</i>
  </separator>
  <separator name="linear response parameters" >
   <i type="logical" name="LEPSILON"> F  </i>
   <i type="logical" name="LRPA"> F  </i>
   <i type="logical" name="LNABLA"> F  </i>
   <i type="logical" name="LVEL"> F  </i>
   <i type="int" name="KINTER">     0</i>
   <i name="CSHIFT">      0.10000000</i>
   <i name="OMEGAMAX">     -1.00000000</i>
   <i name="DEG_THRESHOLD">      0.00200000</i>
   <i name="RTIME">     -0.10000000</i>
   <i name="WPLASMAI">      0.00000000</i>
   <v name="DFIELD">      0.00000000      0.00000000      0.00000000</v>
   <v name="WPLASMA">      0.00000000      0.00000000      0.00000000      0.00000000      0.00000000      0.00000000      0.00000000      0.00000000      0.00000000</v>
  </separator>
  <separator name="orbital magnetization" >
   <i type="logical" name="NUCIND"> F  </i>
   <v name="MAGPOS">      0.00000000      0.00000000      0.00000000</v>
   <i type="logical" name="LNICSALL"> T  </i>
   <i type="logical" name="ORBITALMAG"> F  </i>
   <i type="logical" name="LMAGBLOCH"> F  </i>
   <i type="logical" name="LCHIMAG"> F  </i>
   <i type="logical" name="LGAUGE"> T  </i>
   <i type="int" name="MAGATOM">     0</i>
   <v name="MAGDIPOL">      0.00000000      0.00000000      0.00000000</v>
   <v name="AVECCONST">      0.00000000      0.00000000      0.00000000</v>
  </separator>
  <separator name="response functions" >
   <i type="logical" name="LADDER"> F  </i>
   <i type="logical" name="LRPAFORCE"> F  </i>
   <i type="logical" name="LFXC"> F  </i>
   <i type="logical" name="LHARTREE"> T  </i>
   <i type="int" name="IBSE">     0</i>
   <v type="int" name="KPOINT">    -1     0     0     0</v>
   <i type="logical" name="LTCTE"> F  </i>
   <i type="logical" name="LTETE"> F  </i>
   <i type="logical" name="LTRIPLET"> F  </i>
   <i type="logical" name="LFXCEPS"> F  </i>
   <i type="logical" name="LFXHEG"> F  </i>
   <i type="int" name="NATURALO">     2</i>
   <i type="logical" name="L2ORDER"> F  </i>
   <i type="logical" name="LMP2LT"> F  </i>
   <i type="logical" name="LUSEW"> F  </i>
   <i name="ENCUTGW">     -2.00000000</i>
   <i name="ENCUTGWSOFT">     -2.00000000</i>
   <i name="ENCUTLF">     -1.00000000</i>
   <i type="int" name="LMAXMP2">    -1</i>
   <i name="SCISSOR">      0.00000000</i>
   <i type="int" name="NOMEGA">     0</i>
   <i type="int" name="NOMEGAR">     0</i>
   <i type="int" name="NBANDSGW">    -1</i>
   <i type="int" name="NBANDSO">    -1</i>
   <i type="int" name="NBANDSV">    -1</i>
   <i type="int" name="NELM">   200</i>
   <i type="int" name="NELMHF">     1</i>
   <i type="int" name="DIM">     3</i>
   <i type="int" name="ANTIRES">     0</i>
   <i name="OMEGAMAX">    -30.00000000</i>
   <i name="OMEGAMIN">    -30.00000000</i>
   <i name="OMEGATL">   -200.00000000</i>
   <i type="int" name="OMEGAGRID">   140</i>
   <i name="CSHIFT">     -0.10000000</i>
   <i type="logical" name="SELFENERGY"> F  </i>
   <i type="logical" name="LSPECTRAL"> F  </i>
   <i type="logical" name="LSPECTRALGW"> F  </i>
   <i type="logical" name="LSINGLES"> F  </i>
   <i type="logical" name="LFERMIGW"> F  </i>
   <i type="logical" name="ODDONLYGW"> F  </i>
   <i type="logical" name="EVENONLYGW"> F  </i>
   <i type="int" name="NKREDLFX">     1</i>
   <i type="int" name="NKREDLFY">     1</i>
   <i type="int" name="NKREDLFZ">     1</i>
   <i type="int" name="MAXMEM">  2800</i>
   <i type="int" name="TELESCOPE">     0</i>
   <i type="int" name="TAUPAR">     1</i>
   <i type="int" name="OMEGAPAR">    -1</i>
   <i name="LAMBDA">      1.00000000</i>
  </separator>
  <separator name="External order field" >
   <i name="OFIELD_KAPPA">      0.00000000</i>
   <v name="OFIELD_K">      0.00000000      0.00000000      0.00000000</v>
   <i name="OFIELD_Q6_NEAR">      0.00000000</i>
   <i name="OFIELD_Q6_FAR">      0.00000000</i>
   <i name="OFIELD_A">      0.00000000</i>
  </separator>
 </parameters>
 <atominfo>
  <atoms>      39 </atoms>
  <types>       3 </types>
  <array name="atoms" >
   <dimension dim="1">ion</dimension>
   <field type="string">element</field>
   <field type="int">atomtype</field>
   <set>
    <rc><c>Cs</c><c>   1</c></rc>
    <rc><c>Cs</c><c>   1</c></rc>
    <rc><c>Cs</c><c>   1</c></rc>
    <rc><c>Cs</c><c>   1</c></rc>
    <rc><c>Cs</c><c>   1</c></rc>
    <rc><c>Cs</c><c>   1</c></rc>
    <rc><c>Cs</c><c>   1</c></rc>
    <rc><c>Cs</c><c>   1</c></rc>
    <rc><c>Pb</c><c>   2</c></rc>
    <rc><c>Pb</c><c>   2</c></rc>
    <rc><c>Pb</c><c>   2</c></rc>
    <rc><c>Pb</c><c>   2</c></rc>
    <rc><c>Pb</c><c>   2</c></rc>
    <rc><c>Pb</c><c>   2</c></rc>
    <rc><c>Pb</c><c>   2</c></rc>
    <rc><c>Pb</c><c>   2</c></rc>
    <rc><c>Br</c><c>   3</c></rc>
    <rc><c>Br</c><c>   3</c></rc>
    <rc><c>Br</c><c>   3</c></rc>
    <rc><c>Br</c><c>   3</c></rc>
    <rc><c>Br</c><c>   3</c></rc>
    <rc><c>Br</c><c>   3</c></rc>
    <rc><c>Br</c><c>   3</c></rc>
    <rc><c>Br</c><c>   3</c></rc>
    <rc><c>Br</c><c>   3</c></rc>
    <rc><c>Br</c><c>   3</c></rc>
    <rc><c>Br</c><c>   3</c></rc>
    <rc><c>Br</c><c>   3</c></rc>
    <rc><c>Br</c><c>   3</c></rc>
    <rc><c>Br</c><c>   3</c></rc>
    <rc><c>Br</c><c>   3</c></rc>
    <rc><c>Br</c><c>   3</c></rc>
    <rc><c>Br</c><c>   3</c></rc>
    <rc><c>Br</c><c>   3</c></rc>
    <rc><c>Br</c><c>   3</c></rc>
    <rc><c>Br</c><c>   3</c></rc>
    <rc><c>Br</c><c>   3</c></rc>
    <rc><c>Br</c><c>   3</c></rc>
    <rc><c>Br</c><c>   3</c></rc>
   </set>
  </array>
  <array name="atomtypes" >
   <dimension dim="1">type</dimension>
   <field type="int">atomspertype</field>
   <field type="string">element</field>
   <field>mass</field>
   <field>valence</field>
   <field type="string">pseudopotential</field>
   <set>
    <rc><c>   8</c><c>Cs</c><c>    132.90000000</c><c>      9.00000000</c><c>  PAW_PBE Cs_sv 08Apr2002               </c></rc>
    <rc><c>   8</c><c>Pb</c><c>    207.20000000</c><c>     14.00000000</c><c>  PAW_PBE Pb_d 06Sep2000                </c></rc>
    <rc><c>  23</c><c>Br</c><c>     79.90400000</c><c>      7.00000000</c><c>  PAW_PBE Br 06Sep2000                  </c></rc>
   </set>
  </array>
 </atominfo>
 <structure name="initialpos" >
  <crystal>
   <varray name="basis" >
    <v>       8.45648900       0.00000000       8.04030100 </v>
    <v>       0.00000000      11.72984700       0.00000000 </v>
    <v>      -8.45648900       0.00000000       8.04030100 </v>
   </varray>
   <i name="volume">   1595.08833419 </i>
   <varray name="rec_basis" >
    <v>       0.05912619      -0.00000000       0.06218673 </v>
    <v>       0.00000000       0.08525260      -0.00000000 </v>
    <v>      -0.05912619       0.00000000       0.06218673 </v>
   </varray>
  </crystal>
  <varray name="positions" >
   <v>       0.26709900       0.25000000       0.19969400 </v>
   <v>       0.77110800       0.25000000       0.71506600 </v>
   <v>       0.70479200       0.75000000       0.25802000 </v>
   <v>       0.21019700       0.75000000       0.78109800 </v>
   <v>       0.29564800       0.25000000       0.73633300 </v>
   <v>       0.78992800       0.25000000       0.22537300 </v>
   <v>       0.73253000       0.75000000       0.80631900 </v>
   <v>       0.22808800       0.75000000       0.27848600 </v>
   <v>       0.99980100       0.00068100       0.99919000 </v>
   <v>       0.49919800       0.00558500       0.49915200 </v>
   <v>       0.49994400       0.00044700       0.00022000 </v>
   <v>       0.00156200       0.00577700       0.50077600 </v>
   <v>       0.49994400       0.49955300       0.00022100 </v>
   <v>       0.00156200       0.49422300       0.50077600 </v>
   <v>       0.99980100       0.49931800       0.99919000 </v>
   <v>       0.49919800       0.49441500       0.49915200 </v>
   <v>       0.47171100       0.75000000       0.96993700 </v>
   <v>       0.96692200       0.25000000       0.96969100 </v>
   <v>       0.45557100       0.25000000       0.46827200 </v>
   <v>       0.02591000       0.75000000       0.03073100 </v>
   <v>       0.52843400       0.25000000       0.03422400 </v>
   <v>       0.03372400       0.25000000       0.54308500 </v>
   <v>       0.24758400       0.46850100       0.94979400 </v>
   <v>       0.74790200       0.46911300       0.44927100 </v>
   <v>       0.45203300       0.53710600       0.25039400 </v>
   <v>       0.95108900       0.53744900       0.74525900 </v>
   <v>       0.55100000       0.03027600       0.75151300 </v>
   <v>       0.04970500       0.03231100       0.25321200 </v>
   <v>       0.75234100       0.97063000       0.05000700 </v>
   <v>       0.25222700       0.95461000       0.54665500 </v>
   <v>       0.24758400       0.03149800       0.94979400 </v>
   <v>       0.74790200       0.03088700       0.44927100 </v>
   <v>       0.45203300       0.96289400       0.25039400 </v>
   <v>       0.95108900       0.96255100       0.74525900 </v>
   <v>       0.75234100       0.52937000       0.05000700 </v>
   <v>       0.25222700       0.54539000       0.54665500 </v>
   <v>       0.55100000       0.46972400       0.75151300 </v>
   <v>       0.04970500       0.46768900       0.25321200 </v>
   <v>       0.75477900       0.75000000       0.49623700 </v>
  </varray>
 </structure>
 <calculation>
  <scstep>
   <time name="dav">   16.55   16.56</time>
   <time name="total">   18.01   18.03</time>
   <energy>
    <i name="alphaZ">    872.70583573 </i>
    <i name="ewald"> -17988.26975244 </i>
    <i name="hartreedc">  -7368.92341471 </i>
    <i name="XCdc">    907.91013635 </i>
    <i name="pawpsdc">  21345.28103884 </i>
    <i name="pawaedc"> -22405.85761495 </i>
    <i name="eentropy">     -0.00017566 </i>
    <i name="bandstr">   -240.70006243 </i>
    <i name="atom">  26212.11861568 </i>
    <i name="e_fr_energy">   1334.26460641 </i>
    <i name="e_wo_entrp">   1334.26478207 </i>
    <i name="e_0_energy">   1334.26469424 </i>
   </energy>
  </scstep>
  <scstep>
   <time name="dav">   18.45   18.49</time>
   <time name="total">   18.45   18.49</time>
   <energy>
    <i name="e_fr_energy">  -1115.26013027 </i>
    <i name="e_wo_entrp">  -1115.26013027 </i>
    <i name="e_0_energy">  -1115.26013027 </i>
   </energy>
  </scstep>
  <scstep>
   <time name="dav">   19.35   19.41</time>
   <time name="total">   19.35   19.41</time>
   <energy>
    <i name="e_fr_energy">  -1474.42525569 </i>
    <i name="e_wo_entrp">  -1474.42525569 </i>
    <i name="e_0_energy">  -1474.42525569 </i>
   </energy>
  </scstep>
  <scstep>
   <time name="dav">   17.98   18.01</time>
   <time name="total">   17.98   18.01</time>
   <energy>
    <i name="e_fr_energy">  -1486.21723750 </i>
    <i name="e_wo_entrp">  -1486.21723750 </i>
    <i name="e_0_energy">  -1486.21723750 </i>
   </energy>
  </scstep>
  <scstep>
   <time name="dav">   19.14   19.20</time>
   <time name="total">   21.88   21.93</time>
   <energy>
    <i name="e_fr_energy">  -1486.74491054 </i>
    <i name="e_wo_entrp">  -1486.74491054 </i>
    <i name="e_0_energy">  -1486.74491054 </i>
   </energy>
  </scstep>
  <scstep>
   <time name="dav">   18.92   18.92</time>
   <time name="total">   23.11   23.15</time>
   <energy>
    <i name="e_fr_energy">  -1408.24790378 </i>
    <i name="e_wo_entrp">  -1408.24790378 </i>
    <i name="e_0_energy">  -1408.24790378 </i>
   </energy>
  </scstep>
  <scstep>
   <time name="dav">   18.14   18.14</time>
   <time name="total">   22.35   22.36</time>
   <energy>
    <i name="e_fr_energy">  -1407.52847094 </i>
    <i name="e_wo_entrp">  -1407.52847094 </i>
    <i name="e_0_energy">  -1407.52847094 </i>
   </energy>
  </scstep>
  <scstep>
   <time name="dav">   17.92   17.92</time>
   <time name="total">   22.12   22.15</time>
   <energy>
    <i name="e_fr_energy">  -1407.70508921 </i>
    <i name="e_wo_entrp">  -1407.70508921 </i>
    <i name="e_0_energy">  -1407.70508921 </i>
   </energy>
  </scstep>
  <scstep>
   <time name="dav">   17.37   17.37</time>
   <time name="total">   21.57   21.60</time>
   <energy>
    <i name="e_fr_energy">  -1407.74767748 </i>
    <i name="e_wo_entrp">  -1407.74767748 </i>
    <i name="e_0_energy">  -1407.74767748 </i>
   </energy>
  </scstep>
  <scstep>
   <time name="dav">   19.08   19.08</time>
   <time name="total">   23.26   23.31</time>
   <energy>
    <i name="e_fr_energy">  -1407.75288404 </i>
    <i name="e_wo_entrp">  -1407.75288404 </i>
    <i name="e_0_energy">  -1407.75288404 </i>
   </energy>
  </scstep>
  <scstep>
   <time name="dav">   17.04   17.04</time>
   <time name="total">   21.23   21.28</time>
   <energy>
    <i name="e_fr_energy">  -1407.75473973 </i>
    <i name="e_wo_entrp">  -1407.75473973 </i>
    <i name="e_0_energy">  -1407.75473973 </i>
   </energy>
  </scstep>
  <scstep>
   <time name="dav">   16.80   16.80</time>
   <time name="total">   20.98   21.02</time>
   <energy>
    <i name="e_fr_energy">  -1407.75719706 </i>
    <i name="e_wo_entrp">  -1407.75719706 </i>
    <i name="e_0_energy">  -1407.75719706 </i>
   </energy>
  </scstep>
  <scstep>
   <time name="dav">   19.33   19.33</time>
   <time name="total">   23.50   23.57</time>
   <energy>
    <i name="e_fr_energy">  -1407.75655043 </i>
    <i name="e_wo_entrp">  -1407.75655043 </i>
    <i name="e_0_energy">  -1407.75655043 </i>
   </energy>
  </scstep>
  <scstep>
   <time name="dav">   17.69   17.69</time>
   <time name="total">   21.88   21.93</time>
   <energy>
    <i name="e_fr_energy">  -1407.75655532 </i>
    <i name="e_wo_entrp">  -1407.75655532 </i>
    <i name="e_0_energy">  -1407.75655532 </i>
   </energy>
  </scstep>
  <scstep>
   <time name="dav">   17.21   17.21</time>
   <time name="total">   21.38   21.45</time>
   <energy>
    <i name="e_fr_energy">  -1407.75654632 </i>
    <i name="e_wo_entrp">  -1407.75654632 </i>
    <i name="e_0_energy">  -1407.75654632 </i>
   </energy>
  </scstep>
  <scstep>
   <time name="dav">   18.03   18.03</time>
   <time name="total">   22.23   22.26</time>
   <energy>
    <i name="e_fr_energy">  -1407.75662160 </i>
    <i name="e_wo_entrp">  -1407.75662160 </i>
    <i name="e_0_energy">  -1407.75662160 </i>
   </energy>
  </scstep>
  <scstep>
   <time name="dav">   16.61   16.61</time>
   <time name="total">   20.79   20.84</time>
   <energy>
    <i name="e_fr_energy">  -1407.75661203 </i>
    <i name="e_wo_entrp">  -1407.75661203 </i>
    <i name="e_0_energy">  -1407.75661203 </i>
   </energy>
  </scstep>
  <scstep>
   <time name="dav">   13.16   13.16</time>
   <time name="total">   17.37   17.39</time>
   <energy>
    <i name="e_fr_energy">  -1407.75660886 </i>
    <i name="e_wo_entrp">  -1407.75660886 </i>
    <i name="e_0_energy">  -1407.75660886 </i>
   </energy>
  </scstep>
  <scstep>
   <time name="dav">   13.22   13.22</time>
   <time name="total">   14.67   14.72</time>
   <energy>
    <i name="alphaZ">    872.70583573 </i>
    <i name="ewald"> -17988.26975244 </i>
    <i name="hartreedc">  -7397.51364869 </i>
    <i name="XCdc">    943.38266186 </i>
    <i name="pawpsdc">  22718.33121735 </i>
    <i name="pawaedc"> -23775.65335979 </i>
    <i name="eentropy">     -0.00000000 </i>
    <i name="bandstr">  -2992.85817781 </i>
    <i name="atom">  26212.11861568 </i>
    <i name="e_fr_energy">  -1407.75660811 </i>
    <i name="e_wo_entrp">  -1407.75660811 </i>
    <i name="e_0_energy">  -1407.75660811 </i>
   </energy>
  </scstep>
  <structure>
   <crystal>
    <varray name="basis" >
     <v>       8.45648900       0.00000000       8.04030100 </v>
     <v>       0.00000000      11.72984700       0.00000000 </v>
     <v>      -8.45648900       0.00000000       8.04030100 </v>
    </varray>
    <i name="volume">   1595.08833419 </i>
    <varray name="rec_basis" >
     <v>       0.05912619      -0.00000000       0.06218673 </v>
     <v>       0.00000000       0.08525260      -0.00000000 </v>
     <v>      -0.05912619       0.00000000       0.06218673 </v>
    </varray>
   </crystal>
   <varray name="positions" >
    <v>       0.26709900       0.25000000       0.19969400 </v>
    <v>       0.77110800       0.25000000       0.71506600 </v>
    <v>       0.70479200       0.75000000       0.25802000 </v>
    <v>       0.21019700       0.75000000       0.78109800 </v>
    <v>       0.29564800       0.25000000       0.73633300 </v>
    <v>       0.78992800       0.25000000       0.22537300 </v>
    <v>       0.73253000       0.75000000       0.80631900 </v>
    <v>       0.22808800       0.75000000       0.27848600 </v>
    <v>       0.99980100       0.00068100       0.99919000 </v>
    <v>       0.49919800       0.00558500       0.49915200 </v>
    <v>       0.49994400       0.00044700       0.00022000 </v>
    <v>       0.00156200       0.00577700       0.50077600 </v>
    <v>       0.49994400       0.49955300       0.00022100 </v>
    <v>       0.00156200       0.49422300       0.50077600 </v>
    <v>       0.99980100       0.49931800       0.99919000 </v>
    <v>       0.49919800       0.49441500       0.49915200 </v>
    <v>       0.47171100       0.75000000       0.96993700 </v>
    <v>       0.96692200       0.25000000       0.96969100 </v>
    <v>       0.45557100       0.25000000       0.46827200 </v>
    <v>       0.02591000       0.75000000       0.03073100 </v>
    <v>       0.52843400       0.25000000       0.03422400 </v>
    <v>       0.03372400       0.25000000       0.54308500 </v>
    <v>       0.24758400       0.46850100       0.94979400 </v>
    <v>       0.74790200       0.46911300       0.44927100 </v>
    <v>       0.45203300       0.53710600       0.25039400 </v>
    <v>       0.95108900       0.53744900       0.74525900 </v>
    <v>       0.55100000       0.03027600       0.75151300 </v>
    <v>       0.04970500       0.03231100       0.25321200 </v>
    <v>       0.75234100       0.97063000       0.05000700 </v>
    <v>       0.25222700       0.95461000       0.54665500 </v>
    <v>       0.24758400       0.03149800       0.94979400 </v>
    <v>       0.74790200       0.03088700       0.44927100 </v>
    <v>       0.45203300       0.96289400       0.25039400 </v>
    <v>       0.95108900       0.96255100       0.74525900 </v>
    <v>       0.75234100       0.52937000       0.05000700 </v>
    <v>       0.25222700       0.54539000       0.54665500 </v>
    <v>       0.55100000       0.46972400       0.75151300 </v>
    <v>       0.04970500       0.46768900       0.25321200 </v>
    <v>       0.75477900       0.75000000       0.49623700 </v>
   </varray>
  </structure>
  <varray name="forces" >
   <v>       0.02645016      -0.00000343      -0.02943774 </v>
   <v>       0.01303277       0.00000087      -0.01860435 </v>
   <v>       1.46756938       0.00000369      -2.12038067 </v>
   <v>      -0.08527326      -0.00000463       0.04284713 </v>
   <v>      -0.02850660      -0.00000421       0.04474597 </v>
   <v>      -0.03074774      -0.00000107       0.00170448 </v>
   <v>       0.10668453      -0.00000265      -0.03269450 </v>
   <v>       0.05306292       0.00000358      -0.06983656 </v>
   <v>      -0.02719634      -0.00208869      -0.10675733 </v>
   <v>       0.33249949       0.02878602       0.26268777 </v>
   <v>       0.06130735      -0.02454145       0.06823149 </v>
   <v>      -0.35660209       0.00437589      -0.28695275 </v>
   <v>       0.06134599       0.02453997       0.06820512 </v>
   <v>      -0.35660542      -0.00438131      -0.28694504 </v>
   <v>      -0.02718941       0.00209485      -0.10676072 </v>
   <v>       0.33248168      -0.02878292       0.26270994 </v>
   <v>      -0.02686270      -0.00000173      -0.06685423 </v>
   <v>       0.01284939      -0.00000486       0.01523921 </v>
   <v>      -0.01389701       0.00000081       0.04370087 </v>
   <v>       0.01886432      -0.00000221       0.02953339 </v>
   <v>      -0.01655341       0.00000175      -0.01867204 </v>
   <v>       0.03494307       0.00000080      -0.03423163 </v>
   <v>       0.00917218      -0.00012747       0.00058132 </v>
   <v>       0.05906914      -0.80291358      -0.07227901 </v>
   <v>      -0.09824229      -0.01839510       0.02155566 </v>
   <v>       0.06859918      -0.05397715       0.03907836 </v>
   <v>       0.01461108       0.00385302      -0.08202937 </v>
   <v>      -0.03799968      -0.01174923       0.07268923 </v>
   <v>       0.04594668       0.08623024      -0.01767173 </v>
   <v>       0.02182460      -0.05071032       0.01057291 </v>
   <v>       0.00917574       0.00013150       0.00057924 </v>
   <v>       0.05906856       0.80291294      -0.07227599 </v>
   <v>      -0.09823911       0.01839856       0.02155643 </v>
   <v>       0.06860048       0.05397531       0.03907573 </v>
   <v>       0.04594370      -0.08622671      -0.01766960 </v>
   <v>       0.02182506       0.05071108       0.01057232 </v>
   <v>       0.01460752      -0.00384958      -0.08203379 </v>
   <v>      -0.03799913       0.01174812       0.07268454 </v>
   <v>      -1.71762077      -0.00000070       2.39353594 </v>
  </varray>
  <varray name="stress" >
   <v>      -7.41881098       0.00001566      -4.85759570 </v>
   <v>       0.00001575      -5.07081153      -0.00003163 </v>
   <v>      -4.85751532      -0.00003159      -2.70500829 </v>
  </varray>
  <energy>
   <i name="e_fr_energy">  -1407.75660811 </i>
   <i name="e_wo_entrp">  -1407.75660811 </i>
   <i name="e_0_energy">     -0.00000000 </i>
  </energy>
  <time name="totalsc">  447.45  448.30</time>
  <eigenvalues>
   <array>
    <dimension dim="1">band</dimension>
    <dimension dim="2">kpoint</dimension>
    <dimension dim="3">spin</dimension>
    <field>eigene</field>
    <field>occ</field>
    <set>
     <set comment="spin 1">
      <set comment="kpoint 1">
       <r>  -21.0482    1.0000 </r>
       <r>  -20.9190    1.0000 </r>
       <r>  -20.8287    1.0000 </r>
       <r>  -20.8125    1.0000 </r>
       <r>  -20.7767    1.0000 </r>
       <r>  -20.6276    1.0000 </r>
       <r>  -20.4344    1.0000 </r>
       <r>  -20.0906    1.0000 </r>
       <r>  -16.9114    1.0000 </r>
       <r>  -16.8991    1.0000 </r>
       <r>  -16.8644    1.0000 </r>
       <r>  -16.8511    1.0000 </r>
       <r>  -16.8343    1.0000 </r>
       <r>  -16.8320    1.0000 </r>
       <r>  -16.7987    1.0000 </r>
       <r>  -16.7971    1.0000 </r>
       <r>  -16.7846    1.0000 </r>
       <r>  -16.7839    1.0000 </r>
       <r>  -16.7770    1.0000 </r>
       <r>  -16.7763    1.0000 </r>
       <r>  -16.7757    1.0000 </r>
       <r>  -16.7749    1.0000 </r>
       <r>  -16.7667    1.0000 </r>
       <r>  -16.7660    1.0000 </r>
       <r>  -16.7118    1.0000 </r>
       <r>  -16.7117    1.0000 </r>
       <r>  -16.7021    1.0000 </r>
       <r>  -16.7020    1.0000 </r>
       <r>  -16.4604    1.0000 </r>
       <r>  -16.4487    1.0000 </r>
       <r>  -16.4316    1.0000 </r>
       <r>  -16.4269    1.0000 </r>
       <r>  -16.3982    1.0000 </r>
       <r>  -16.3873    1.0000 </r>
       <r>  -16.3804    1.0000 </r>
       <r>  -16.3619    1.0000 </r>
       <r>  -16.3060    1.0000 </r>
       <r>  -16.3052    1.0000 </r>
       <r>  -16.3008    1.0000 </r>
       <r>  -16.3004    1.0000 </r>
       <r>  -16.2974    1.0000 </r>
       <r>  -16.2967    1.0000 </r>
       <r>  -16.2925    1.0000 </r>
       <r>  -16.2920    1.0000 </r>
       <r>  -16.2861    1.0000 </r>
       <r>  -16.2853    1.0000 </r>
       <r>  -16.2811    1.0000 </r>
       <r>  -16.2803    1.0000 </r>
       <r>  -14.7035    1.0000 </r>
       <r>  -14.6546    1.0000 </r>
       <r>  -14.3103    1.0000 </r>
       <r>  -14.3080    1.0000 </r>
       <r>  -14.2261    1.0000 </r>
       <r>  -14.1558    1.0000 </r>
       <r>  -14.1271    1.0000 </r>
       <r>  -14.1115    1.0000 </r>
       <r>  -14.1044    1.0000 </r>
       <r>  -14.0888    1.0000 </r>
       <r>  -14.0664    1.0000 </r>
       <r>  -14.0633    1.0000 </r>
       <r>  -14.0439    1.0000 </r>
       <r>  -14.0080    1.0000 </r>
       <r>  -13.9827    1.0000 </r>
       <r>  -13.9759    1.0000 </r>
       <r>  -13.9128    1.0000 </r>
       <r>  -13.8371    1.0000 </r>
       <r>  -13.8332    1.0000 </r>
       <r>  -13.7411    1.0000 </r>
       <r>  -13.7194    1.0000 </r>
       <r>  -13.7048    1.0000 </r>
       <r>  -12.6962    1.0000 </r>
       <r>   -8.3023    1.0000 </r>
       <r>   -7.9225    1.0000 </r>
       <r>   -7.8340    1.0000 </r>
       <r>   -7.7905    1.0000 </r>
       <r>   -7.4864    1.0000 </r>
       <r>   -7.4483    1.0000 </r>
       <r>   -7.4059    1.0000 </r>
       <r>   -7.3959    1.0000 </r>
       <r>   -7.3341    1.0000 </r>
       <r>   -7.3291    1.0000 </r>
       <r>   -7.3044    1.0000 </r>
       <r>   -7.2641    1.0000 </r>
       <r>   -7.2599    1.0000 </r>
       <r>   -7.2484    1.0000 </r>
       <r>   -7.2281    1.0000 </r>
       <r>   -7.2263    1.0000 </r>
       <r>   -7.2233    1.0000 </r>
       <r>   -7.2160    1.0000 </r>
       <r>   -7.1912    1.0000 </r>
       <r>   -7.1853    1.0000 </r>
       <r>   -7.1645    1.0000 </r>
       <r>   -7.1503    1.0000 </r>
       <r>   -7.0596    1.0000 </r>
       <r>   -7.0181    1.0000 </r>
       <r>   -7.0131    1.0000 </r>
       <r>   -6.8934    1.0000 </r>
       <r>   -6.8565    1.0000 </r>
       <r>   -6.8323    1.0000 </r>
       <r>   -6.6545    1.0000 </r>
       <r>   -6.5943    1.0000 </r>
       <r>   -6.5492    1.0000 </r>
       <r>   -6.5316    1.0000 </r>
       <r>   -3.3504    1.0000 </r>
       <r>   -3.3419    1.0000 </r>
       <r>   -3.3217    1.0000 </r>
       <r>   -3.2705    1.0000 </r>
       <r>   -3.2490    1.0000 </r>
       <r>   -3.2339    1.0000 </r>
       <r>   -3.2147    1.0000 </r>
       <r>   -3.1857    1.0000 </r>
       <r>   -3.1197    1.0000 </r>
       <r>   -3.0568    1.0000 </r>
       <r>   -2.9886    1.0000 </r>
       <r>   -2.9781    1.0000 </r>
       <r>   -2.3674    1.0000 </r>
       <r>   -2.3013    1.0000 </r>
       <r>   -2.1974    1.0000 </r>
       <r>   -2.1118    1.0000 </r>
       <r>   -2.0211    1.0000 </r>
       <r>   -1.9744    1.0000 </r>
       <r>   -1.9413    1.0000 </r>
       <r>   -1.9275    1.0000 </r>
       <r>   -1.9044    1.0000 </r>
       <r>   -1.8678    1.0000 </r>
       <r>   -1.7939    1.0000 </r>
       <r>   -1.7750    1.0000 </r>
       <r>   -1.7596    1.0000 </r>
       <r>   -1.7466    1.0000 </r>
       <r>   -1.7054    1.0000 </r>
       <r>   -1.6714    1.0000 </r>
       <r>   -1.6181    1.0000 </r>
       <r>   -1.5865    1.0000 </r>
       <r>   -1.5748    1.0000 </r>
       <r>   -1.5455    1.0000 </r>
       <r>   -1.5384    1.0000 </r>
       <r>   -1.5237    1.0000 </r>
       <r>   -1.5111    1.0000 </r>
       <r>   -1.4932    1.0000 </r>
       <r>   -1.4723    1.0000 </r>
       <r>   -1.4510    1.0000 </r>
       <r>   -1.4364    1.0000 </r>
       <r>   -1.4308    1.0000 </r>
       <r>   -1.4146    1.0000 </r>
       <r>   -1.3756    1.0000 </r>
       <r>   -1.3652    1.0000 </r>
       <r>   -1.3567    1.0000 </r>
       <r>   -1.3494    1.0000 </r>
       <r>   -1.3372    1.0000 </r>
       <r>   -1.3221    1.0000 </r>
       <r>   -1.3025    1.0000 </r>
       <r>   -1.3002    1.0000 </r>
       <r>   -1.2491    1.0000 </r>
       <r>   -1.1831    1.0000 </r>
       <r>   -1.1581    1.0000 </r>
       <r>   -1.1561    1.0000 </r>
       <r>   -1.1402    1.0000 </r>
       <r>   -1.1215    1.0000 </r>
       <r>   -1.1174    1.0000 </r>
       <r>   -1.0545    1.0000 </r>
       <r>   -0.9757    1.0000 </r>
       <r>   -0.8978    1.0000 </r>
       <r>   -0.8795    1.0000 </r>
       <r>   -0.7966    1.0000 </r>
       <r>   -0.7579    1.0000 </r>
       <r>   -0.5139    1.0000 </r>
       <r>   -0.5021    1.0000 </r>
       <r>   -0.2856    1.0000 </r>
       <r>   -0.2113    1.0000 </r>
       <r>    0.1583    1.0000 </r>
       <r>    0.3205    1.0000 </r>
       <r>    0.6706    1.0000 </r>
       <r>    2.3069    0.0000 </r>
       <r>    2.4051    0.0000 </r>
       <r>    2.6049    0.0000 </r>
       <r>    2.8086    0.0000 </r>
       <r>    2.9014    0.0000 </r>
       <r>    3.0013    0.0000 </r>
       <r>    3.0488    0.0000 </r>
       <r>    3.0930    0.0000 </r>
       <r>    3.1144    0.0000 </r>
       <r>    3.3612    0.0000 </r>
       <r>    3.4121    0.0000 </r>
       <r>    3.5046    0.0000 </r>
       <r>    3.9652    0.0000 </r>
       <r>    4.4062    0.0000 </r>
       <r>    4.8191    0.0000 </r>
       <r>    5.3591    0.0000 </r>
       <r>    5.4286    0.0000 </r>
       <r>    5.6547    0.0000 </r>
       <r>    5.7467    0.0000 </r>
       <r>    5.7734    0.0000 </r>
       <r>    5.8111    0.0000 </r>
       <r>    5.8396    0.0000 </r>
       <r>    5.9669    0.0000 </r>
       <r>    6.0432    0.0000 </r>
       <r>    6.0452    0.0000 </r>
       <r>    6.0515    0.0000 </r>
       <r>    6.1426    0.0000 </r>
       <r>    6.2066    0.0000 </r>
       <r>    6.3091    0.0000 </r>
       <r>    6.3351    0.0000 </r>
       <r>    6.4076    0.0000 </r>
       <r>    6.4948    0.0000 </r>
       <r>    6.4987    0.0000 </r>
       <r>    6.5328    0.0000 </r>
       <r>    6.6319    0.0000 </r>
       <r>    6.6351    0.0000 </r>
      </set>
      <set comment="kpoint 2">
       <r>  -21.0482    1.0000 </r>
       <r>  -20.9190    1.0000 </r>
       <r>  -20.8287    1.0000 </r>
       <r>  -20.8125    1.0000 </r>
       <r>  -20.7767    1.0000 </r>
       <r>  -20.6276    1.0000 </r>
       <r>  -20.4344    1.0000 </r>
       <r>  -20.0906    1.0000 </r>
       <r>  -16.9079    1.0000 </r>
       <r>  -16.9008    1.0000 </r>
       <r>  -16.8591    1.0000 </r>
       <r>  -16.8512    1.0000 </r>
       <r>  -16.8225    1.0000 </r>
       <r>  -16.8222    1.0000 </r>
       <r>  -16.8124    1.0000 </r>
       <r>  -16.8121    1.0000 </r>
       <r>  -16.7845    1.0000 </r>
       <r>  -16.7837    1.0000 </r>
       <r>  -16.7769    1.0000 </r>
       <r>  -16.7763    1.0000 </r>
       <r>  -16.7762    1.0000 </r>
       <r>  -16.7756    1.0000 </r>
       <r>  -16.7667    1.0000 </r>
       <r>  -16.7659    1.0000 </r>
       <r>  -16.7118    1.0000 </r>
       <r>  -16.7118    1.0000 </r>
       <r>  -16.7022    1.0000 </r>
       <r>  -16.7021    1.0000 </r>
       <r>  -16.4545    1.0000 </r>
       <r>  -16.4492    1.0000 </r>
       <r>  -16.4122    1.0000 </r>
       <r>  -16.4111    1.0000 </r>
       <r>  -16.4022    1.0000 </r>
       <r>  -16.4021    1.0000 </r>
       <r>  -16.3854    1.0000 </r>
       <r>  -16.3800    1.0000 </r>
       <r>  -16.3060    1.0000 </r>
       <r>  -16.3052    1.0000 </r>
       <r>  -16.3008    1.0000 </r>
       <r>  -16.3004    1.0000 </r>
       <r>  -16.2974    1.0000 </r>
       <r>  -16.2967    1.0000 </r>
       <r>  -16.2926    1.0000 </r>
       <r>  -16.2920    1.0000 </r>
       <r>  -16.2862    1.0000 </r>
       <r>  -16.2852    1.0000 </r>
       <r>  -16.2812    1.0000 </r>
       <r>  -16.2802    1.0000 </r>
       <r>  -14.6912    1.0000 </r>
       <r>  -14.6703    1.0000 </r>
       <r>  -14.3023    1.0000 </r>
       <r>  -14.2845    1.0000 </r>
       <r>  -14.2351    1.0000 </r>
       <r>  -14.2094    1.0000 </r>
       <r>  -14.1335    1.0000 </r>
       <r>  -14.1122    1.0000 </r>
       <r>  -14.1113    1.0000 </r>
       <r>  -14.0937    1.0000 </r>
       <r>  -14.0722    1.0000 </r>
       <r>  -14.0632    1.0000 </r>
       <r>  -14.0443    1.0000 </r>
       <r>  -14.0438    1.0000 </r>
       <r>  -13.9195    1.0000 </r>
       <r>  -13.8911    1.0000 </r>
       <r>  -13.8880    1.0000 </r>
       <r>  -13.8461    1.0000 </r>
       <r>  -13.8124    1.0000 </r>
       <r>  -13.7615    1.0000 </r>
       <r>  -13.7490    1.0000 </r>
       <r>  -13.7401    1.0000 </r>
       <r>  -12.6963    1.0000 </r>
       <r>   -8.0886    1.0000 </r>
       <r>   -8.0823    1.0000 </r>
       <r>   -7.6980    1.0000 </r>
       <r>   -7.6866    1.0000 </r>
       <r>   -7.5689    1.0000 </r>
       <r>   -7.5539    1.0000 </r>
       <r>   -7.4722    1.0000 </r>
       <r>   -7.4434    1.0000 </r>
       <r>   -7.3958    1.0000 </r>
       <r>   -7.3335    1.0000 </r>
       <r>   -7.3254    1.0000 </r>
       <r>   -7.3038    1.0000 </r>
       <r>   -7.2532    1.0000 </r>
       <r>   -7.2313    1.0000 </r>
       <r>   -7.2260    1.0000 </r>
       <r>   -7.2241    1.0000 </r>
       <r>   -7.2166    1.0000 </r>
       <r>   -7.1943    1.0000 </r>
       <r>   -7.1916    1.0000 </r>
       <r>   -7.1801    1.0000 </r>
       <r>   -7.1507    1.0000 </r>
       <r>   -7.0640    1.0000 </r>
       <r>   -7.0200    1.0000 </r>
       <r>   -7.0127    1.0000 </r>
       <r>   -6.9859    1.0000 </r>
       <r>   -6.9746    1.0000 </r>
       <r>   -6.8907    1.0000 </r>
       <r>   -6.8571    1.0000 </r>
       <r>   -6.8252    1.0000 </r>
       <r>   -6.6013    1.0000 </r>
       <r>   -6.5492    1.0000 </r>
       <r>   -6.5309    1.0000 </r>
       <r>   -3.3157    1.0000 </r>
       <r>   -3.2928    1.0000 </r>
       <r>   -3.2852    1.0000 </r>
       <r>   -3.2795    1.0000 </r>
       <r>   -3.1913    1.0000 </r>
       <r>   -3.1747    1.0000 </r>
       <r>   -3.0834    1.0000 </r>
       <r>   -3.0662    1.0000 </r>
       <r>   -2.6776    1.0000 </r>
       <r>   -2.6374    1.0000 </r>
       <r>   -2.4902    1.0000 </r>
       <r>   -2.4779    1.0000 </r>
       <r>   -2.4634    1.0000 </r>
       <r>   -2.3638    1.0000 </r>
       <r>   -2.3380    1.0000 </r>
       <r>   -2.2473    1.0000 </r>
       <r>   -2.2360    1.0000 </r>
       <r>   -2.1860    1.0000 </r>
       <r>   -2.1200    1.0000 </r>
       <r>   -2.0306    1.0000 </r>
       <r>   -1.9742    1.0000 </r>
       <r>   -1.9354    1.0000 </r>
       <r>   -1.8777    1.0000 </r>
       <r>   -1.8647    1.0000 </r>
       <r>   -1.8456    1.0000 </r>
       <r>   -1.7921    1.0000 </r>
       <r>   -1.7601    1.0000 </r>
       <r>   -1.7323    1.0000 </r>
       <r>   -1.7026    1.0000 </r>
       <r>   -1.6535    1.0000 </r>
       <r>   -1.6367    1.0000 </r>
       <r>   -1.6075    1.0000 </r>
       <r>   -1.5943    1.0000 </r>
       <r>   -1.5716    1.0000 </r>
       <r>   -1.5563    1.0000 </r>
       <r>   -1.5196    1.0000 </r>
       <r>   -1.5085    1.0000 </r>
       <r>   -1.4773    1.0000 </r>
       <r>   -1.4364    1.0000 </r>
       <r>   -1.4241    1.0000 </r>
       <r>   -1.3940    1.0000 </r>
       <r>   -1.3789    1.0000 </r>
       <r>   -1.3783    1.0000 </r>
       <r>   -1.3498    1.0000 </r>
       <r>   -1.3215    1.0000 </r>
       <r>   -1.3137    1.0000 </r>
       <r>   -1.3103    1.0000 </r>
       <r>   -1.2842    1.0000 </r>
       <r>   -1.2389    1.0000 </r>
       <r>   -1.2272    1.0000 </r>
       <r>   -1.1703    1.0000 </r>
       <r>   -1.1686    1.0000 </r>
       <r>   -1.1485    1.0000 </r>
       <r>   -1.1238    1.0000 </r>
       <r>   -1.1142    1.0000 </r>
       <r>   -1.1097    1.0000 </r>
       <r>   -1.0572    1.0000 </r>
       <r>   -1.0417    1.0000 </r>
       <r>   -0.9436    1.0000 </r>
       <r>   -0.9082    1.0000 </r>
       <r>   -0.9067    1.0000 </r>
       <r>   -0.8662    1.0000 </r>
       <r>   -0.6742    1.0000 </r>
       <r>   -0.6614    1.0000 </r>
       <r>   -0.4836    1.0000 </r>
       <r>   -0.1334    1.0000 </r>
       <r>   -0.1218    1.0000 </r>
       <r>    0.1589    1.0000 </r>
       <r>    0.6706    1.0000 </r>
       <r>    2.2180    0.0000 </r>
       <r>    2.5075    0.0000 </r>
       <r>    2.8679    0.0000 </r>
       <r>    2.8854    0.0000 </r>
       <r>    3.1698    0.0000 </r>
       <r>    3.1743    0.0000 </r>
       <r>    3.2093    0.0000 </r>
       <r>    3.2289    0.0000 </r>
       <r>    3.9745    0.0000 </r>
       <r>    4.0940    0.0000 </r>
       <r>    4.1459    0.0000 </r>
       <r>    4.2585    0.0000 </r>
       <r>    4.3052    0.0000 </r>
       <r>    4.3731    0.0000 </r>
       <r>    4.5142    0.0000 </r>
       <r>    4.5891    0.0000 </r>
       <r>    4.8007    0.0000 </r>
       <r>    4.8467    0.0000 </r>
       <r>    5.3661    0.0000 </r>
       <r>    5.5434    0.0000 </r>
       <r>    5.5804    0.0000 </r>
       <r>    5.6128    0.0000 </r>
       <r>    5.8252    0.0000 </r>
       <r>    5.8612    0.0000 </r>
       <r>    6.0992    0.0000 </r>
       <r>    6.1315    0.0000 </r>
       <r>    6.1454    0.0000 </r>
       <r>    6.1855    0.0000 </r>
       <r>    6.2068    0.0000 </r>
       <r>    6.2357    0.0000 </r>
       <r>    6.3193    0.0000 </r>
       <r>    6.3888    0.0000 </r>
       <r>    6.4474    0.0000 </r>
       <r>    6.5413    0.0000 </r>
       <r>    6.5766    0.0000 </r>
       <r>    6.6557    0.0000 </r>
      </set>
      <set comment="kpoint 3">
       <r>  -21.0482    1.0000 </r>
       <r>  -20.9190    1.0000 </r>
       <r>  -20.8287    1.0000 </r>
       <r>  -20.8125    1.0000 </r>
       <r>  -20.7767    1.0000 </r>
       <r>  -20.6276    1.0000 </r>
       <r>  -20.4344    1.0000 </r>
       <r>  -20.0906    1.0000 </r>
       <r>  -16.9110    1.0000 </r>
       <r>  -16.8988    1.0000 </r>
       <r>  -16.8647    1.0000 </r>
       <r>  -16.8514    1.0000 </r>
       <r>  -16.8342    1.0000 </r>
       <r>  -16.8322    1.0000 </r>
       <r>  -16.7986    1.0000 </r>
       <r>  -16.7972    1.0000 </r>
       <r>  -16.7845    1.0000 </r>
       <r>  -16.7839    1.0000 </r>
       <r>  -16.7769    1.0000 </r>
       <r>  -16.7763    1.0000 </r>
       <r>  -16.7756    1.0000 </r>
       <r>  -16.7750    1.0000 </r>
       <r>  -16.7666    1.0000 </r>
       <r>  -16.7660    1.0000 </r>
       <r>  -16.7118    1.0000 </r>
       <r>  -16.7118    1.0000 </r>
       <r>  -16.7021    1.0000 </r>
       <r>  -16.7021    1.0000 </r>
       <r>  -16.4366    1.0000 </r>
       <r>  -16.4360    1.0000 </r>
       <r>  -16.4230    1.0000 </r>
       <r>  -16.4217    1.0000 </r>
       <r>  -16.4144    1.0000 </r>
       <r>  -16.4131    1.0000 </r>
       <r>  -16.3765    1.0000 </r>
       <r>  -16.3762    1.0000 </r>
       <r>  -16.3056    1.0000 </r>
       <r>  -16.3055    1.0000 </r>
       <r>  -16.3006    1.0000 </r>
       <r>  -16.3006    1.0000 </r>
       <r>  -16.2970    1.0000 </r>
       <r>  -16.2970    1.0000 </r>
       <r>  -16.2923    1.0000 </r>
       <r>  -16.2922    1.0000 </r>
       <r>  -16.2857    1.0000 </r>
       <r>  -16.2857    1.0000 </r>
       <r>  -16.2807    1.0000 </r>
       <r>  -16.2807    1.0000 </r>
       <r>  -14.7024    1.0000 </r>
       <r>  -14.6540    1.0000 </r>
       <r>  -14.3312    1.0000 </r>
       <r>  -14.2800    1.0000 </r>
       <r>  -14.2130    1.0000 </r>
       <r>  -14.2021    1.0000 </r>
       <r>  -14.1465    1.0000 </r>
       <r>  -14.1323    1.0000 </r>
       <r>  -14.1089    1.0000 </r>
       <r>  -14.1077    1.0000 </r>
       <r>  -14.0643    1.0000 </r>
       <r>  -14.0617    1.0000 </r>
       <r>  -13.9891    1.0000 </r>
       <r>  -13.9842    1.0000 </r>
       <r>  -13.9498    1.0000 </r>
       <r>  -13.9362    1.0000 </r>
       <r>  -13.9027    1.0000 </r>
       <r>  -13.8940    1.0000 </r>
       <r>  -13.7900    1.0000 </r>
       <r>  -13.7769    1.0000 </r>
       <r>  -13.7294    1.0000 </r>
       <r>  -13.7191    1.0000 </r>
       <r>  -12.6963    1.0000 </r>
       <r>   -8.2523    1.0000 </r>
       <r>   -7.9967    1.0000 </r>
       <r>   -7.7804    1.0000 </r>
       <r>   -7.6050    1.0000 </r>
       <r>   -7.4990    1.0000 </r>
       <r>   -7.4912    1.0000 </r>
       <r>   -7.4745    1.0000 </r>
       <r>   -7.4366    1.0000 </r>
       <r>   -7.3941    1.0000 </r>
       <r>   -7.3330    1.0000 </r>
       <r>   -7.3223    1.0000 </r>
       <r>   -7.3030    1.0000 </r>
       <r>   -7.2529    1.0000 </r>
       <r>   -7.2322    1.0000 </r>
       <r>   -7.2284    1.0000 </r>
       <r>   -7.2270    1.0000 </r>
       <r>   -7.2152    1.0000 </r>
       <r>   -7.1912    1.0000 </r>
       <r>   -7.1905    1.0000 </r>
       <r>   -7.1739    1.0000 </r>
       <r>   -7.1504    1.0000 </r>
       <r>   -7.0601    1.0000 </r>
       <r>   -7.0554    1.0000 </r>
       <r>   -7.0190    1.0000 </r>
       <r>   -7.0083    1.0000 </r>
       <r>   -6.9067    1.0000 </r>
       <r>   -6.8951    1.0000 </r>
       <r>   -6.8561    1.0000 </r>
       <r>   -6.8268    1.0000 </r>
       <r>   -6.6036    1.0000 </r>
       <r>   -6.5492    1.0000 </r>
       <r>   -6.5324    1.0000 </r>
       <r>   -3.3288    1.0000 </r>
       <r>   -3.3076    1.0000 </r>
       <r>   -3.2926    1.0000 </r>
       <r>   -3.2497    1.0000 </r>
       <r>   -3.2180    1.0000 </r>
       <r>   -3.1645    1.0000 </r>
       <r>   -3.1375    1.0000 </r>
       <r>   -3.1308    1.0000 </r>
       <r>   -3.0217    1.0000 </r>
       <r>   -2.9869    1.0000 </r>
       <r>   -2.4704    1.0000 </r>
       <r>   -2.4678    1.0000 </r>
       <r>   -2.4199    1.0000 </r>
       <r>   -2.4076    1.0000 </r>
       <r>   -2.3492    1.0000 </r>
       <r>   -2.2734    1.0000 </r>
       <r>   -2.1184    1.0000 </r>
       <r>   -2.0878    1.0000 </r>
       <r>   -2.0385    1.0000 </r>
       <r>   -1.9887    1.0000 </r>
       <r>   -1.9380    1.0000 </r>
       <r>   -1.8847    1.0000 </r>
       <r>   -1.8831    1.0000 </r>
       <r>   -1.8645    1.0000 </r>
       <r>   -1.8629    1.0000 </r>
       <r>   -1.7868    1.0000 </r>
       <r>   -1.7285    1.0000 </r>
       <r>   -1.6933    1.0000 </r>
       <r>   -1.6492    1.0000 </r>
       <r>   -1.6407    1.0000 </r>
       <r>   -1.6125    1.0000 </r>
       <r>   -1.5832    1.0000 </r>
       <r>   -1.5656    1.0000 </r>
       <r>   -1.5486    1.0000 </r>
       <r>   -1.5154    1.0000 </r>
       <r>   -1.5054    1.0000 </r>
       <r>   -1.4887    1.0000 </r>
       <r>   -1.4377    1.0000 </r>
       <r>   -1.4356    1.0000 </r>
       <r>   -1.4235    1.0000 </r>
       <r>   -1.4152    1.0000 </r>
       <r>   -1.3963    1.0000 </r>
       <r>   -1.3803    1.0000 </r>
       <r>   -1.3632    1.0000 </r>
       <r>   -1.3448    1.0000 </r>
       <r>   -1.3148    1.0000 </r>
       <r>   -1.3099    1.0000 </r>
       <r>   -1.2615    1.0000 </r>
       <r>   -1.2428    1.0000 </r>
       <r>   -1.2172    1.0000 </r>
       <r>   -1.1816    1.0000 </r>
       <r>   -1.1625    1.0000 </r>
       <r>   -1.1593    1.0000 </r>
       <r>   -1.1381    1.0000 </r>
       <r>   -1.1321    1.0000 </r>
       <r>   -1.0932    1.0000 </r>
       <r>   -1.0715    1.0000 </r>
       <r>   -1.0353    1.0000 </r>
       <r>   -0.8980    1.0000 </r>
       <r>   -0.8599    1.0000 </r>
       <r>   -0.7327    1.0000 </r>
       <r>   -0.6988    1.0000 </r>
       <r>   -0.6738    1.0000 </r>
       <r>   -0.6436    1.0000 </r>
       <r>   -0.4558    1.0000 </r>
       <r>   -0.1228    1.0000 </r>
       <r>   -0.0386    1.0000 </r>
       <r>    0.1579    1.0000 </r>
       <r>    0.6166    1.0000 </r>
       <r>    2.3964    0.0000 </r>
       <r>    2.5933    0.0000 </r>
       <r>    2.7517    0.0000 </r>
       <r>    2.8539    0.0000 </r>
       <r>    2.8670    0.0000 </r>
       <r>    3.0616    0.0000 </r>
       <r>    3.1126    0.0000 </r>
       <r>    3.2417    0.0000 </r>
       <r>    3.2964    0.0000 </r>
       <r>    3.3517    0.0000 </r>
       <r>    3.6882    0.0000 </r>
       <r>    3.8176    0.0000 </r>
       <r>    4.5496    0.0000 </r>
       <r>    4.5771    0.0000 </r>
       <r>    4.8223    0.0000 </r>
       <r>    4.8417    0.0000 </r>
       <r>    5.3995    0.0000 </r>
       <r>    5.4500    0.0000 </r>
       <r>    5.5089    0.0000 </r>
       <r>    5.6697    0.0000 </r>
       <r>    5.6785    0.0000 </r>
       <r>    5.7237    0.0000 </r>
       <r>    5.8120    0.0000 </r>
       <r>    5.9875    0.0000 </r>
       <r>    6.0298    0.0000 </r>
       <r>    6.1182    0.0000 </r>
       <r>    6.1247    0.0000 </r>
       <r>    6.2111    0.0000 </r>
       <r>    6.2234    0.0000 </r>
       <r>    6.2919    0.0000 </r>
       <r>    6.3506    0.0000 </r>
       <r>    6.4989    0.0000 </r>
       <r>    6.5168    0.0000 </r>
       <r>    6.5517    0.0000 </r>
       <r>    6.6182    0.0000 </r>
       <r>    6.6453    0.0000 </r>
      </set>
      <set comment="kpoint 4">
       <r>  -21.0482    1.0000 </r>
       <r>  -20.9190    1.0000 </r>
       <r>  -20.8287    1.0000 </r>
       <r>  -20.8125    1.0000 </r>
       <r>  -20.7767    1.0000 </r>
       <r>  -20.6276    1.0000 </r>
       <r>  -20.4344    1.0000 </r>
       <r>  -20.0906    1.0000 </r>
       <r>  -16.9076    1.0000 </r>
       <r>  -16.9004    1.0000 </r>
       <r>  -16.8594    1.0000 </r>
       <r>  -16.8514    1.0000 </r>
       <r>  -16.8224    1.0000 </r>
       <r>  -16.8224    1.0000 </r>
       <r>  -16.8123    1.0000 </r>
       <r>  -16.8122    1.0000 </r>
       <r>  -16.7844    1.0000 </r>
       <r>  -16.7839    1.0000 </r>
       <r>  -16.7768    1.0000 </r>
       <r>  -16.7763    1.0000 </r>
       <r>  -16.7762    1.0000 </r>
       <r>  -16.7757    1.0000 </r>
       <r>  -16.7667    1.0000 </r>
       <r>  -16.7660    1.0000 </r>
       <r>  -16.7118    1.0000 </r>
       <r>  -16.7118    1.0000 </r>
       <r>  -16.7022    1.0000 </r>
       <r>  -16.7021    1.0000 </r>
       <r>  -16.4233    1.0000 </r>
       <r>  -16.4219    1.0000 </r>
       <r>  -16.4163    1.0000 </r>
       <r>  -16.4148    1.0000 </r>
       <r>  -16.4097    1.0000 </r>
       <r>  -16.4094    1.0000 </r>
       <r>  -16.4018    1.0000 </r>
       <r>  -16.4017    1.0000 </r>
       <r>  -16.3056    1.0000 </r>
       <r>  -16.3056    1.0000 </r>
       <r>  -16.3006    1.0000 </r>
       <r>  -16.3006    1.0000 </r>
       <r>  -16.2970    1.0000 </r>
       <r>  -16.2970    1.0000 </r>
       <r>  -16.2923    1.0000 </r>
       <r>  -16.2923    1.0000 </r>
       <r>  -16.2857    1.0000 </r>
       <r>  -16.2857    1.0000 </r>
       <r>  -16.2808    1.0000 </r>
       <r>  -16.2807    1.0000 </r>
       <r>  -14.6904    1.0000 </r>
       <r>  -14.6694    1.0000 </r>
       <r>  -14.3187    1.0000 </r>
       <r>  -14.2654    1.0000 </r>
       <r>  -14.2181    1.0000 </r>
       <r>  -14.1963    1.0000 </r>
       <r>  -14.1884    1.0000 </r>
       <r>  -14.1817    1.0000 </r>
       <r>  -14.1085    1.0000 </r>
       <r>  -14.1079    1.0000 </r>
       <r>  -14.0709    1.0000 </r>
       <r>  -14.0703    1.0000 </r>
       <r>  -13.9611    1.0000 </r>
       <r>  -13.9403    1.0000 </r>
       <r>  -13.9016    1.0000 </r>
       <r>  -13.8986    1.0000 </r>
       <r>  -13.8888    1.0000 </r>
       <r>  -13.8816    1.0000 </r>
       <r>  -13.8113    1.0000 </r>
       <r>  -13.8078    1.0000 </r>
       <r>  -13.7553    1.0000 </r>
       <r>  -13.7390    1.0000 </r>
       <r>  -12.6963    1.0000 </r>
       <r>   -8.0377    1.0000 </r>
       <r>   -8.0319    1.0000 </r>
       <r>   -7.7743    1.0000 </r>
       <r>   -7.7654    1.0000 </r>
       <r>   -7.4813    1.0000 </r>
       <r>   -7.4539    1.0000 </r>
       <r>   -7.4132    1.0000 </r>
       <r>   -7.3651    1.0000 </r>
       <r>   -7.3540    1.0000 </r>
       <r>   -7.3374    1.0000 </r>
       <r>   -7.3245    1.0000 </r>
       <r>   -7.2937    1.0000 </r>
       <r>   -7.2613    1.0000 </r>
       <r>   -7.2493    1.0000 </r>
       <r>   -7.2301    1.0000 </r>
       <r>   -7.2294    1.0000 </r>
       <r>   -7.2270    1.0000 </r>
       <r>   -7.2180    1.0000 </r>
       <r>   -7.2094    1.0000 </r>
       <r>   -7.1907    1.0000 </r>
       <r>   -7.1711    1.0000 </r>
       <r>   -7.1628    1.0000 </r>
       <r>   -7.1445    1.0000 </r>
       <r>   -7.0536    1.0000 </r>
       <r>   -7.0187    1.0000 </r>
       <r>   -7.0111    1.0000 </r>
       <r>   -6.8945    1.0000 </r>
       <r>   -6.8561    1.0000 </r>
       <r>   -6.8281    1.0000 </r>
       <r>   -6.6037    1.0000 </r>
       <r>   -6.5486    1.0000 </r>
       <r>   -6.5318    1.0000 </r>
       <r>   -3.2900    1.0000 </r>
       <r>   -3.2562    1.0000 </r>
       <r>   -3.2439    1.0000 </r>
       <r>   -3.2122    1.0000 </r>
       <r>   -3.1065    1.0000 </r>
       <r>   -3.1019    1.0000 </r>
       <r>   -2.6712    1.0000 </r>
       <r>   -2.6395    1.0000 </r>
       <r>   -2.6090    1.0000 </r>
       <r>   -2.5842    1.0000 </r>
       <r>   -2.5494    1.0000 </r>
       <r>   -2.5101    1.0000 </r>
       <r>   -2.3963    1.0000 </r>
       <r>   -2.3343    1.0000 </r>
       <r>   -2.3306    1.0000 </r>
       <r>   -2.3029    1.0000 </r>
       <r>   -2.2924    1.0000 </r>
       <r>   -2.2911    1.0000 </r>
       <r>   -2.2342    1.0000 </r>
       <r>   -2.1571    1.0000 </r>
       <r>   -2.1040    1.0000 </r>
       <r>   -2.0075    1.0000 </r>
       <r>   -1.9592    1.0000 </r>
       <r>   -1.8880    1.0000 </r>
       <r>   -1.8686    1.0000 </r>
       <r>   -1.7868    1.0000 </r>
       <r>   -1.7777    1.0000 </r>
       <r>   -1.7267    1.0000 </r>
       <r>   -1.7062    1.0000 </r>
       <r>   -1.7035    1.0000 </r>
       <r>   -1.6204    1.0000 </r>
       <r>   -1.5960    1.0000 </r>
       <r>   -1.5943    1.0000 </r>
       <r>   -1.5755    1.0000 </r>
       <r>   -1.5658    1.0000 </r>
       <r>   -1.5646    1.0000 </r>
       <r>   -1.5443    1.0000 </r>
       <r>   -1.5284    1.0000 </r>
       <r>   -1.4796    1.0000 </r>
       <r>   -1.4701    1.0000 </r>
       <r>   -1.4480    1.0000 </r>
       <r>   -1.4286    1.0000 </r>
       <r>   -1.3844    1.0000 </r>
       <r>   -1.3730    1.0000 </r>
       <r>   -1.3715    1.0000 </r>
       <r>   -1.3581    1.0000 </r>
       <r>   -1.3420    1.0000 </r>
       <r>   -1.2094    1.0000 </r>
       <r>   -1.1984    1.0000 </r>
       <r>   -1.1933    1.0000 </r>
       <r>   -1.1652    1.0000 </r>
       <r>   -1.1436    1.0000 </r>
       <r>   -1.1377    1.0000 </r>
       <r>   -1.1310    1.0000 </r>
       <r>   -1.0995    1.0000 </r>
       <r>   -1.0949    1.0000 </r>
       <r>   -1.0634    1.0000 </r>
       <r>   -1.0434    1.0000 </r>
       <r>   -0.9670    1.0000 </r>
       <r>   -0.9369    1.0000 </r>
       <r>   -0.9127    1.0000 </r>
       <r>   -0.8837    1.0000 </r>
       <r>   -0.5908    1.0000 </r>
       <r>   -0.5688    1.0000 </r>
       <r>   -0.5459    1.0000 </r>
       <r>   -0.5173    1.0000 </r>
       <r>   -0.4487    1.0000 </r>
       <r>    0.1589    1.0000 </r>
       <r>    0.6186    1.0000 </r>
       <r>    2.5620    0.0000 </r>
       <r>    2.6179    0.0000 </r>
       <r>    2.9144    0.0000 </r>
       <r>    2.9721    0.0000 </r>
       <r>    3.0990    0.0000 </r>
       <r>    3.1135    0.0000 </r>
       <r>    3.4946    0.0000 </r>
       <r>    3.7789    0.0000 </r>
       <r>    4.0649    0.0000 </r>
       <r>    4.2894    0.0000 </r>
       <r>    4.2915    0.0000 </r>
       <r>    4.3695    0.0000 </r>
       <r>    4.6126    0.0000 </r>
       <r>    4.6346    0.0000 </r>
       <r>    4.6443    0.0000 </r>
       <r>    4.6488    0.0000 </r>
       <r>    4.7187    0.0000 </r>
       <r>    4.7396    0.0000 </r>
       <r>    4.7572    0.0000 </r>
       <r>    4.8210    0.0000 </r>
       <r>    5.6195    0.0000 </r>
       <r>    5.6578    0.0000 </r>
       <r>    5.8242    0.0000 </r>
       <r>    5.8499    0.0000 </r>
       <r>    5.8806    0.0000 </r>
       <r>    5.8881    0.0000 </r>
       <r>    6.0231    0.0000 </r>
       <r>    6.0693    0.0000 </r>
       <r>    6.1604    0.0000 </r>
       <r>    6.2408    0.0000 </r>
       <r>    6.3214    0.0000 </r>
       <r>    6.3702    0.0000 </r>
       <r>    6.4040    0.0000 </r>
       <r>    6.4620    0.0000 </r>
       <r>    6.5317    0.0000 </r>
       <r>    6.5843    0.0000 </r>
      </set>
      <set comment="kpoint 5">
       <r>  -21.0482    1.0000 </r>
       <r>  -20.9190    1.0000 </r>
       <r>  -20.8287    1.0000 </r>
       <r>  -20.8125    1.0000 </r>
       <r>  -20.7767    1.0000 </r>
       <r>  -20.6276    1.0000 </r>
       <r>  -20.4344    1.0000 </r>
       <r>  -20.0906    1.0000 </r>
       <r>  -16.9112    1.0000 </r>
       <r>  -16.8987    1.0000 </r>
       <r>  -16.8644    1.0000 </r>
       <r>  -16.8504    1.0000 </r>
       <r>  -16.8331    1.0000 </r>
       <r>  -16.8307    1.0000 </r>
       <r>  -16.7977    1.0000 </r>
       <r>  -16.7963    1.0000 </r>
       <r>  -16.7846    1.0000 </r>
       <r>  -16.7839    1.0000 </r>
       <r>  -16.7770    1.0000 </r>
       <r>  -16.7762    1.0000 </r>
       <r>  -16.7757    1.0000 </r>
       <r>  -16.7749    1.0000 </r>
       <r>  -16.7667    1.0000 </r>
       <r>  -16.7659    1.0000 </r>
       <r>  -16.7118    1.0000 </r>
       <r>  -16.7118    1.0000 </r>
       <r>  -16.7021    1.0000 </r>
       <r>  -16.7021    1.0000 </r>
       <r>  -16.4606    1.0000 </r>
       <r>  -16.4496    1.0000 </r>
       <r>  -16.4327    1.0000 </r>
       <r>  -16.4286    1.0000 </r>
       <r>  -16.4003    1.0000 </r>
       <r>  -16.3887    1.0000 </r>
       <r>  -16.3816    1.0000 </r>
       <r>  -16.3619    1.0000 </r>
       <r>  -16.3060    1.0000 </r>
       <r>  -16.3051    1.0000 </r>
       <r>  -16.3008    1.0000 </r>
       <r>  -16.3003    1.0000 </r>
       <r>  -16.2974    1.0000 </r>
       <r>  -16.2967    1.0000 </r>
       <r>  -16.2925    1.0000 </r>
       <r>  -16.2920    1.0000 </r>
       <r>  -16.2862    1.0000 </r>
       <r>  -16.2853    1.0000 </r>
       <r>  -16.2812    1.0000 </r>
       <r>  -16.2802    1.0000 </r>
       <r>  -14.7030    1.0000 </r>
       <r>  -14.6549    1.0000 </r>
       <r>  -14.3170    1.0000 </r>
       <r>  -14.3020    1.0000 </r>
       <r>  -14.2521    1.0000 </r>
       <r>  -14.1812    1.0000 </r>
       <r>  -14.1671    1.0000 </r>
       <r>  -14.0879    1.0000 </r>
       <r>  -14.0684    1.0000 </r>
       <r>  -14.0658    1.0000 </r>
       <r>  -14.0625    1.0000 </r>
       <r>  -14.0411    1.0000 </r>
       <r>  -14.0300    1.0000 </r>
       <r>  -14.0132    1.0000 </r>
       <r>  -13.9816    1.0000 </r>
       <r>  -13.9730    1.0000 </r>
       <r>  -13.8958    1.0000 </r>
       <r>  -13.8532    1.0000 </r>
       <r>  -13.8051    1.0000 </r>
       <r>  -13.7677    1.0000 </r>
       <r>  -13.7460    1.0000 </r>
       <r>  -13.7056    1.0000 </r>
       <r>  -12.6964    1.0000 </r>
       <r>   -8.1550    1.0000 </r>
       <r>   -7.9745    1.0000 </r>
       <r>   -7.8185    1.0000 </r>
       <r>   -7.6870    1.0000 </r>
       <r>   -7.4935    1.0000 </r>
       <r>   -7.4804    1.0000 </r>
       <r>   -7.4686    1.0000 </r>
       <r>   -7.4001    1.0000 </r>
       <r>   -7.3965    1.0000 </r>
       <r>   -7.3397    1.0000 </r>
       <r>   -7.3181    1.0000 </r>
       <r>   -7.3007    1.0000 </r>
       <r>   -7.2812    1.0000 </r>
       <r>   -7.2448    1.0000 </r>
       <r>   -7.2292    1.0000 </r>
       <r>   -7.2233    1.0000 </r>
       <r>   -7.2219    1.0000 </r>
       <r>   -7.2181    1.0000 </r>
       <r>   -7.1923    1.0000 </r>
       <r>   -7.1842    1.0000 </r>
       <r>   -7.1683    1.0000 </r>
       <r>   -7.1508    1.0000 </r>
       <r>   -7.0608    1.0000 </r>
       <r>   -7.0179    1.0000 </r>
       <r>   -7.0122    1.0000 </r>
       <r>   -6.8958    1.0000 </r>
       <r>   -6.8568    1.0000 </r>
       <r>   -6.8562    1.0000 </r>
       <r>   -6.8323    1.0000 </r>
       <r>   -6.6030    1.0000 </r>
       <r>   -6.5493    1.0000 </r>
       <r>   -6.5031    1.0000 </r>
       <r>   -3.3163    1.0000 </r>
       <r>   -3.3059    1.0000 </r>
       <r>   -3.2275    1.0000 </r>
       <r>   -3.2193    1.0000 </r>
       <r>   -3.2082    1.0000 </r>
       <r>   -3.0837    1.0000 </r>
       <r>   -3.0734    1.0000 </r>
       <r>   -3.0492    1.0000 </r>
       <r>   -2.6790    1.0000 </r>
       <r>   -2.6208    1.0000 </r>
       <r>   -2.5678    1.0000 </r>
       <r>   -2.5485    1.0000 </r>
       <r>   -2.4776    1.0000 </r>
       <r>   -2.4463    1.0000 </r>
       <r>   -2.3519    1.0000 </r>
       <r>   -2.2833    1.0000 </r>
       <r>   -2.2452    1.0000 </r>
       <r>   -2.1524    1.0000 </r>
       <r>   -2.1178    1.0000 </r>
       <r>   -2.0651    1.0000 </r>
       <r>   -1.9759    1.0000 </r>
       <r>   -1.9427    1.0000 </r>
       <r>   -1.9149    1.0000 </r>
       <r>   -1.8688    1.0000 </r>
       <r>   -1.8428    1.0000 </r>
       <r>   -1.7984    1.0000 </r>
       <r>   -1.7732    1.0000 </r>
       <r>   -1.7417    1.0000 </r>
       <r>   -1.7037    1.0000 </r>
       <r>   -1.7017    1.0000 </r>
       <r>   -1.6400    1.0000 </r>
       <r>   -1.6177    1.0000 </r>
       <r>   -1.5613    1.0000 </r>
       <r>   -1.5385    1.0000 </r>
       <r>   -1.4943    1.0000 </r>
       <r>   -1.4643    1.0000 </r>
       <r>   -1.4479    1.0000 </r>
       <r>   -1.4305    1.0000 </r>
       <r>   -1.4292    1.0000 </r>
       <r>   -1.4188    1.0000 </r>
       <r>   -1.4058    1.0000 </r>
       <r>   -1.3867    1.0000 </r>
       <r>   -1.3761    1.0000 </r>
       <r>   -1.3557    1.0000 </r>
       <r>   -1.3383    1.0000 </r>
       <r>   -1.3183    1.0000 </r>
       <r>   -1.3086    1.0000 </r>
       <r>   -1.3067    1.0000 </r>
       <r>   -1.2573    1.0000 </r>
       <r>   -1.2230    1.0000 </r>
       <r>   -1.2049    1.0000 </r>
       <r>   -1.1952    1.0000 </r>
       <r>   -1.1678    1.0000 </r>
       <r>   -1.1675    1.0000 </r>
       <r>   -1.1548    1.0000 </r>
       <r>   -1.1483    1.0000 </r>
       <r>   -1.1170    1.0000 </r>
       <r>   -1.0588    1.0000 </r>
       <r>   -0.9446    1.0000 </r>
       <r>   -0.9182    1.0000 </r>
       <r>   -0.8359    1.0000 </r>
       <r>   -0.7005    1.0000 </r>
       <r>   -0.5738    1.0000 </r>
       <r>   -0.5629    1.0000 </r>
       <r>   -0.4795    1.0000 </r>
       <r>   -0.4718    1.0000 </r>
       <r>    0.0655    1.0000 </r>
       <r>    0.1701    1.0000 </r>
       <r>    0.6717    1.0000 </r>
       <r>    2.3540    0.0000 </r>
       <r>    2.4525    0.0000 </r>
       <r>    2.7918    0.0000 </r>
       <r>    2.9609    0.0000 </r>
       <r>    2.9893    0.0000 </r>
       <r>    3.0151    0.0000 </r>
       <r>    3.3175    0.0000 </r>
       <r>    3.4148    0.0000 </r>
       <r>    3.8683    0.0000 </r>
       <r>    4.1280    0.0000 </r>
       <r>    4.1788    0.0000 </r>
       <r>    4.3439    0.0000 </r>
       <r>    4.3635    0.0000 </r>
       <r>    4.4810    0.0000 </r>
       <r>    4.5491    0.0000 </r>
       <r>    4.5569    0.0000 </r>
       <r>    4.5622    0.0000 </r>
       <r>    4.8250    0.0000 </r>
       <r>    5.3153    0.0000 </r>
       <r>    5.4252    0.0000 </r>
       <r>    5.5580    0.0000 </r>
       <r>    5.6997    0.0000 </r>
       <r>    5.7015    0.0000 </r>
       <r>    5.9870    0.0000 </r>
       <r>    6.0135    0.0000 </r>
       <r>    6.0758    0.0000 </r>
       <r>    6.1514    0.0000 </r>
       <r>    6.1720    0.0000 </r>
       <r>    6.2454    0.0000 </r>
       <r>    6.3319    0.0000 </r>
       <r>    6.3620    0.0000 </r>
       <r>    6.3811    0.0000 </r>
       <r>    6.4785    0.0000 </r>
       <r>    6.4859    0.0000 </r>
       <r>    6.5124    0.0000 </r>
       <r>    6.5625    0.0000 </r>
      </set>
      <set comment="kpoint 6">
       <r>  -21.0482    1.0000 </r>
       <r>  -20.9190    1.0000 </r>
       <r>  -20.8287    1.0000 </r>
       <r>  -20.8125    1.0000 </r>
       <r>  -20.7767    1.0000 </r>
       <r>  -20.6276    1.0000 </r>
       <r>  -20.4344    1.0000 </r>
       <r>  -20.0906    1.0000 </r>
       <r>  -16.9076    1.0000 </r>
       <r>  -16.9005    1.0000 </r>
       <r>  -16.8587    1.0000 </r>
       <r>  -16.8508    1.0000 </r>
       <r>  -16.8212    1.0000 </r>
       <r>  -16.8211    1.0000 </r>
       <r>  -16.8112    1.0000 </r>
       <r>  -16.8111    1.0000 </r>
       <r>  -16.7845    1.0000 </r>
       <r>  -16.7838    1.0000 </r>
       <r>  -16.7768    1.0000 </r>
       <r>  -16.7763    1.0000 </r>
       <r>  -16.7761    1.0000 </r>
       <r>  -16.7756    1.0000 </r>
       <r>  -16.7667    1.0000 </r>
       <r>  -16.7660    1.0000 </r>
       <r>  -16.7118    1.0000 </r>
       <r>  -16.7117    1.0000 </r>
       <r>  -16.7022    1.0000 </r>
       <r>  -16.7021    1.0000 </r>
       <r>  -16.4552    1.0000 </r>
       <r>  -16.4497    1.0000 </r>
       <r>  -16.4143    1.0000 </r>
       <r>  -16.4124    1.0000 </r>
       <r>  -16.4041    1.0000 </r>
       <r>  -16.4035    1.0000 </r>
       <r>  -16.3856    1.0000 </r>
       <r>  -16.3804    1.0000 </r>
       <r>  -16.3060    1.0000 </r>
       <r>  -16.3052    1.0000 </r>
       <r>  -16.3008    1.0000 </r>
       <r>  -16.3003    1.0000 </r>
       <r>  -16.2974    1.0000 </r>
       <r>  -16.2967    1.0000 </r>
       <r>  -16.2925    1.0000 </r>
       <r>  -16.2920    1.0000 </r>
       <r>  -16.2862    1.0000 </r>
       <r>  -16.2852    1.0000 </r>
       <r>  -16.2812    1.0000 </r>
       <r>  -16.2803    1.0000 </r>
       <r>  -14.6913    1.0000 </r>
       <r>  -14.6701    1.0000 </r>
       <r>  -14.3000    1.0000 </r>
       <r>  -14.2815    1.0000 </r>
       <r>  -14.2608    1.0000 </r>
       <r>  -14.2421    1.0000 </r>
       <r>  -14.1488    1.0000 </r>
       <r>  -14.1284    1.0000 </r>
       <r>  -14.0865    1.0000 </r>
       <r>  -14.0725    1.0000 </r>
       <r>  -14.0637    1.0000 </r>
       <r>  -14.0442    1.0000 </r>
       <r>  -14.0118    1.0000 </r>
       <r>  -14.0002    1.0000 </r>
       <r>  -13.9314    1.0000 </r>
       <r>  -13.9146    1.0000 </r>
       <r>  -13.8844    1.0000 </r>
       <r>  -13.8297    1.0000 </r>
       <r>  -13.8218    1.0000 </r>
       <r>  -13.7761    1.0000 </r>
       <r>  -13.7583    1.0000 </r>
       <r>  -13.7523    1.0000 </r>
       <r>  -12.6965    1.0000 </r>
       <r>   -7.9439    1.0000 </r>
       <r>   -7.9359    1.0000 </r>
       <r>   -7.7499    1.0000 </r>
       <r>   -7.7447    1.0000 </r>
       <r>   -7.5931    1.0000 </r>
       <r>   -7.5890    1.0000 </r>
       <r>   -7.4645    1.0000 </r>
       <r>   -7.4481    1.0000 </r>
       <r>   -7.4017    1.0000 </r>
       <r>   -7.3387    1.0000 </r>
       <r>   -7.3296    1.0000 </r>
       <r>   -7.3051    1.0000 </r>
       <r>   -7.2629    1.0000 </r>
       <r>   -7.2386    1.0000 </r>
       <r>   -7.2309    1.0000 </r>
       <r>   -7.2240    1.0000 </r>
       <r>   -7.2208    1.0000 </r>
       <r>   -7.2020    1.0000 </r>
       <r>   -7.1938    1.0000 </r>
       <r>   -7.1805    1.0000 </r>
       <r>   -7.1515    1.0000 </r>
       <r>   -7.1353    1.0000 </r>
       <r>   -7.1211    1.0000 </r>
       <r>   -7.0536    1.0000 </r>
       <r>   -7.0144    1.0000 </r>
       <r>   -7.0124    1.0000 </r>
       <r>   -6.8928    1.0000 </r>
       <r>   -6.8573    1.0000 </r>
       <r>   -6.8482    1.0000 </r>
       <r>   -6.6037    1.0000 </r>
       <r>   -6.5493    1.0000 </r>
       <r>   -6.5026    1.0000 </r>
       <r>   -3.2729    1.0000 </r>
       <r>   -3.2621    1.0000 </r>
       <r>   -3.1276    1.0000 </r>
       <r>   -3.1004    1.0000 </r>
[...]
        <r>  0.0000  0.0009  0.0009 </r>
        <r>  0.0000  0.0036  0.0001 </r>
        <r>  0.0001  0.0018  0.0005 </r>
        <r>  0.0002  0.0024  0.0004 </r>
        <r>  0.0000  0.0005  0.0000 </r>
        <r>  0.0018  0.0017  0.0014 </r>
        <r>  0.0001  0.0013  0.0008 </r>
        <r>  0.0017  0.0057  0.0021 </r>
        <r>  0.0000  0.0000  0.0003 </r>
       </set>
       <set comment="band 199">
        <r>  0.0000  0.0000  0.0046 </r>
        <r>  0.0000  0.0000  0.0044 </r>
        <r>  0.0079  0.0044  0.0154 </r>
        <r>  0.0032  0.0003  0.0062 </r>
        <r>  0.0000  0.0000  0.0044 </r>
        <r>  0.0000  0.0001  0.0007 </r>
        <r>  0.0008  0.0003  0.0013 </r>
        <r>  0.0047  0.0022  0.0148 </r>
        <r>  0.0000  0.0012  0.0001 </r>
        <r>  0.0000  0.0026  0.0002 </r>
        <r>  0.0001  0.0013  0.0002 </r>
        <r>  0.0000  0.0156  0.0012 </r>
        <r>  0.0001  0.0013  0.0002 </r>
        <r>  0.0000  0.0156  0.0012 </r>
        <r>  0.0000  0.0012  0.0001 </r>
        <r>  0.0000  0.0026  0.0002 </r>
        <r>  0.0002  0.0017  0.0002 </r>
        <r>  0.0000  0.0024  0.0000 </r>
        <r>  0.0000  0.0021  0.0001 </r>
        <r>  0.0029  0.0067  0.0037 </r>
        <r>  0.0000  0.0003  0.0000 </r>
        <r>  0.0000  0.0110  0.0004 </r>
        <r>  0.0000  0.0002  0.0003 </r>
        <r>  0.0003  0.0001  0.0006 </r>
        <r>  0.0002  0.0006  0.0010 </r>
        <r>  0.0000  0.0028  0.0016 </r>
        <r>  0.0001  0.0002  0.0003 </r>
        <r>  0.0014  0.0037  0.0019 </r>
        <r>  0.0002  0.0023  0.0007 </r>
        <r>  0.0000  0.0009  0.0013 </r>
        <r>  0.0000  0.0002  0.0003 </r>
        <r>  0.0003  0.0001  0.0006 </r>
        <r>  0.0002  0.0006  0.0010 </r>
        <r>  0.0000  0.0028  0.0016 </r>
        <r>  0.0002  0.0023  0.0007 </r>
        <r>  0.0000  0.0009  0.0013 </r>
        <r>  0.0001  0.0002  0.0003 </r>
        <r>  0.0014  0.0037  0.0019 </r>
        <r>  0.0004  0.0006  0.0013 </r>
       </set>
       <set comment="band 200">
        <r>  0.0007  0.0006  0.0202 </r>
        <r>  0.0036  0.0012  0.0048 </r>
        <r>  0.0000  0.0000  0.0007 </r>
        <r>  0.0000  0.0003  0.0018 </r>
        <r>  0.0113  0.0000  0.0228 </r>
        <r>  0.0028  0.0003  0.0161 </r>
        <r>  0.0000  0.0002  0.0047 </r>
        <r>  0.0000  0.0000  0.0048 </r>
        <r>  0.0000  0.0004  0.0002 </r>
        <r>  0.0002  0.0026  0.0002 </r>
        <r>  0.0000  0.0028  0.0003 </r>
        <r>  0.0000  0.0014  0.0002 </r>
        <r>  0.0000  0.0028  0.0003 </r>
        <r>  0.0000  0.0014  0.0002 </r>
        <r>  0.0000  0.0004  0.0002 </r>
        <r>  0.0002  0.0026  0.0002 </r>
        <r>  0.0000  0.0002  0.0002 </r>
        <r>  0.0006  0.0024  0.0028 </r>
        <r>  0.0038  0.0036  0.0047 </r>
        <r>  0.0000  0.0010  0.0001 </r>
        <r>  0.0004  0.0053  0.0018 </r>
        <r>  0.0000  0.0047  0.0024 </r>
        <r>  0.0014  0.0024  0.0012 </r>
        <r>  0.0006  0.0036  0.0004 </r>
        <r>  0.0005  0.0028  0.0005 </r>
        <r>  0.0003  0.0010  0.0006 </r>
        <r>  0.0016  0.0022  0.0019 </r>
        <r>  0.0007  0.0005  0.0006 </r>
        <r>  0.0001  0.0017  0.0003 </r>
        <r>  0.0000  0.0010  0.0007 </r>
        <r>  0.0014  0.0024  0.0012 </r>
        <r>  0.0006  0.0036  0.0004 </r>
        <r>  0.0005  0.0028  0.0005 </r>
        <r>  0.0003  0.0010  0.0006 </r>
        <r>  0.0001  0.0017  0.0003 </r>
        <r>  0.0000  0.0010  0.0007 </r>
        <r>  0.0016  0.0022  0.0019 </r>
        <r>  0.0007  0.0005  0.0006 </r>
        <r>  0.0000  0.0008  0.0001 </r>
       </set>
       <set comment="band 201">
        <r>  0.0000  0.0005  0.0053 </r>
        <r>  0.0000  0.0000  0.0029 </r>
        <r>  0.0050  0.0005  0.0108 </r>
        <r>  0.0049  0.0022  0.0112 </r>
        <r>  0.0000  0.0000  0.0055 </r>
        <r>  0.0000  0.0001  0.0020 </r>
        <r>  0.0013  0.0019  0.0039 </r>
        <r>  0.0093  0.0012  0.0101 </r>
        <r>  0.0000  0.0031  0.0001 </r>
        <r>  0.0001  0.0084  0.0010 </r>
        <r>  0.0000  0.0042  0.0001 </r>
        <r>  0.0000  0.0018  0.0002 </r>
        <r>  0.0000  0.0042  0.0001 </r>
        <r>  0.0000  0.0019  0.0002 </r>
        <r>  0.0000  0.0031  0.0001 </r>
        <r>  0.0001  0.0084  0.0010 </r>
        <r>  0.0040  0.0028  0.0025 </r>
        <r>  0.0000  0.0005  0.0001 </r>
        <r>  0.0000  0.0002  0.0008 </r>
        <r>  0.0001  0.0049  0.0003 </r>
        <r>  0.0000  0.0041  0.0000 </r>
        <r>  0.0000  0.0005  0.0001 </r>
        <r>  0.0005  0.0009  0.0008 </r>
        <r>  0.0001  0.0004  0.0002 </r>
        <r>  0.0016  0.0075  0.0034 </r>
        <r>  0.0002  0.0002  0.0003 </r>
        <r>  0.0006  0.0060  0.0013 </r>
        <r>  0.0000  0.0002  0.0005 </r>
        <r>  0.0003  0.0014  0.0005 </r>
        <r>  0.0000  0.0016  0.0025 </r>
        <r>  0.0005  0.0009  0.0008 </r>
        <r>  0.0001  0.0004  0.0002 </r>
        <r>  0.0016  0.0075  0.0034 </r>
        <r>  0.0002  0.0002  0.0003 </r>
        <r>  0.0003  0.0014  0.0005 </r>
        <r>  0.0000  0.0016  0.0025 </r>
        <r>  0.0006  0.0060  0.0013 </r>
        <r>  0.0000  0.0002  0.0005 </r>
        <r>  0.0003  0.0006  0.0004 </r>
       </set>
       <set comment="band 202">
        <r>  0.0082  0.0008  0.0089 </r>
        <r>  0.0021  0.0004  0.0058 </r>
        <r>  0.0000  0.0004  0.0011 </r>
        <r>  0.0000  0.0004  0.0022 </r>
        <r>  0.0052  0.0027  0.0079 </r>
        <r>  0.0079  0.0020  0.0104 </r>
        <r>  0.0000  0.0000  0.0026 </r>
        <r>  0.0000  0.0000  0.0104 </r>
        <r>  0.0000  0.0056  0.0001 </r>
        <r>  0.0004  0.0053  0.0001 </r>
        <r>  0.0000  0.0054  0.0001 </r>
        <r>  0.0002  0.0012  0.0001 </r>
        <r>  0.0000  0.0054  0.0001 </r>
        <r>  0.0002  0.0012  0.0001 </r>
        <r>  0.0000  0.0056  0.0001 </r>
        <r>  0.0004  0.0053  0.0001 </r>
        <r>  0.0000  0.0050  0.0001 </r>
        <r>  0.0006  0.0043  0.0011 </r>
        <r>  0.0051  0.0041  0.0030 </r>
        <r>  0.0000  0.0009  0.0003 </r>
        <r>  0.0019  0.0020  0.0034 </r>
        <r>  0.0018  0.0012  0.0030 </r>
        <r>  0.0013  0.0016  0.0015 </r>
        <r>  0.0007  0.0053  0.0007 </r>
        <r>  0.0017  0.0008  0.0011 </r>
        <r>  0.0004  0.0004  0.0004 </r>
        <r>  0.0002  0.0027  0.0004 </r>
        <r>  0.0002  0.0022  0.0016 </r>
        <r>  0.0000  0.0040  0.0002 </r>
        <r>  0.0000  0.0022  0.0008 </r>
        <r>  0.0013  0.0016  0.0015 </r>
        <r>  0.0007  0.0053  0.0007 </r>
        <r>  0.0017  0.0008  0.0011 </r>
        <r>  0.0004  0.0004  0.0004 </r>
        <r>  0.0000  0.0040  0.0002 </r>
        <r>  0.0000  0.0023  0.0008 </r>
        <r>  0.0002  0.0027  0.0004 </r>
        <r>  0.0002  0.0022  0.0016 </r>
        <r>  0.0000  0.0020  0.0000 </r>
       </set>
       <set comment="band 203">
        <r>  0.0003  0.0014  0.0117 </r>
        <r>  0.0190  0.0008  0.0047 </r>
        <r>  0.0000  0.0000  0.0028 </r>
        <r>  0.0000  0.0001  0.0102 </r>
        <r>  0.0004  0.0016  0.0188 </r>
        <r>  0.0045  0.0006  0.0042 </r>
        <r>  0.0000  0.0007  0.0011 </r>
        <r>  0.0000  0.0001  0.0024 </r>
        <r>  0.0000  0.0045  0.0003 </r>
        <r>  0.0000  0.0037  0.0000 </r>
        <r>  0.0000  0.0082  0.0001 </r>
        <r>  0.0000  0.0020  0.0001 </r>
        <r>  0.0000  0.0082  0.0001 </r>
        <r>  0.0000  0.0020  0.0001 </r>
        <r>  0.0000  0.0045  0.0003 </r>
        <r>  0.0000  0.0037  0.0000 </r>
        <r>  0.0000  0.0037  0.0001 </r>
        <r>  0.0036  0.0022  0.0033 </r>
        <r>  0.0000  0.0004  0.0038 </r>
        <r>  0.0000  0.0064  0.0004 </r>
        <r>  0.0018  0.0040  0.0034 </r>
        <r>  0.0012  0.0019  0.0015 </r>
        <r>  0.0005  0.0027  0.0019 </r>
        <r>  0.0001  0.0014  0.0011 </r>
        <r>  0.0001  0.0031  0.0005 </r>
        <r>  0.0003  0.0010  0.0009 </r>
        <r>  0.0020  0.0036  0.0026 </r>
        <r>  0.0002  0.0010  0.0004 </r>
        <r>  0.0009  0.0008  0.0005 </r>
        <r>  0.0000  0.0007  0.0004 </r>
        <r>  0.0005  0.0027  0.0019 </r>
        <r>  0.0001  0.0014  0.0011 </r>
        <r>  0.0001  0.0031  0.0005 </r>
        <r>  0.0003  0.0010  0.0009 </r>
        <r>  0.0009  0.0008  0.0005 </r>
        <r>  0.0000  0.0007  0.0004 </r>
        <r>  0.0020  0.0036  0.0025 </r>
        <r>  0.0002  0.0010  0.0004 </r>
        <r>  0.0000  0.0002  0.0003 </r>
       </set>
       <set comment="band 204">
        <r>  0.0000  0.0000  0.0053 </r>
        <r>  0.0000  0.0002  0.0048 </r>
        <r>  0.0003  0.0002  0.0029 </r>
        <r>  0.0082  0.0000  0.0175 </r>
        <r>  0.0000  0.0005  0.0061 </r>
        <r>  0.0000  0.0001  0.0016 </r>
        <r>  0.0002  0.0004  0.0063 </r>
        <r>  0.0000  0.0059  0.0396 </r>
        <r>  0.0000  0.0013  0.0001 </r>
        <r>  0.0000  0.0107  0.0007 </r>
        <r>  0.0000  0.0080  0.0002 </r>
        <r>  0.0000  0.0056  0.0004 </r>
        <r>  0.0000  0.0098  0.0002 </r>
        <r>  0.0000  0.0076  0.0003 </r>
        <r>  0.0000  0.0009  0.0001 </r>
        <r>  0.0000  0.0107  0.0007 </r>
        <r>  0.0013  0.0041  0.0042 </r>
        <r>  0.0000  0.0020  0.0001 </r>
        <r>  0.0000  0.0059  0.0005 </r>
        <r>  0.0003  0.0052  0.0041 </r>
        <r>  0.0000  0.0021  0.0002 </r>
        <r>  0.0000  0.0026  0.0004 </r>
        <r>  0.0018  0.0023  0.0017 </r>
        <r>  0.0000  0.0030  0.0004 </r>
        <r>  0.0000  0.0026  0.0014 </r>
        <r>  0.0003  0.0001  0.0008 </r>
        <r>  0.0001  0.0008  0.0007 </r>
        <r>  0.0000  0.0015  0.0004 </r>
        <r>  0.0002  0.0014  0.0004 </r>
        <r>  0.0006  0.0031  0.0026 </r>
        <r>  0.0016  0.0019  0.0015 </r>
        <r>  0.0000  0.0029  0.0005 </r>
        <r>  0.0000  0.0021  0.0013 </r>
        <r>  0.0003  0.0001  0.0009 </r>
        <r>  0.0003  0.0016  0.0005 </r>
        <r>  0.0007  0.0033  0.0026 </r>
        <r>  0.0001  0.0007  0.0006 </r>
        <r>  0.0000  0.0017  0.0003 </r>
        <r>  0.0001  0.0009  0.0002 </r>
       </set>
       <set comment="band 205">
        <r>  0.0014  0.0001  0.0101 </r>
        <r>  0.0003  0.0004  0.0137 </r>
        <r>  0.0001  0.0000  0.0021 </r>
        <r>  0.0000  0.0003  0.0184 </r>
        <r>  0.0006  0.0006  0.0371 </r>
        <r>  0.0031  0.0001  0.0064 </r>
        <r>  0.0001  0.0000  0.0045 </r>
        <r>  0.0001  0.0002  0.0259 </r>
        <r>  0.0001  0.0083  0.0007 </r>
        <r>  0.0000  0.0023  0.0002 </r>
        <r>  0.0001  0.0066  0.0001 </r>
        <r>  0.0000  0.0080  0.0006 </r>
        <r>  0.0001  0.0045  0.0002 </r>
        <r>  0.0000  0.0072  0.0007 </r>
        <r>  0.0001  0.0085  0.0005 </r>
        <r>  0.0000  0.0026  0.0001 </r>
        <r>  0.0000  0.0001  0.0002 </r>
        <r>  0.0000  0.0004  0.0002 </r>
        <r>  0.0002  0.0011  0.0008 </r>
        <r>  0.0000  0.0008  0.0003 </r>
        <r>  0.0008  0.0004  0.0015 </r>
        <r>  0.0001  0.0003  0.0010 </r>
        <r>  0.0003  0.0012  0.0032 </r>
        <r>  0.0001  0.0002  0.0009 </r>
        <r>  0.0004  0.0024  0.0009 </r>
        <r>  0.0003  0.0024  0.0013 </r>
        <r>  0.0002  0.0014  0.0025 </r>
        <r>  0.0004  0.0004  0.0020 </r>
        <r>  0.0002  0.0015  0.0007 </r>
        <r>  0.0012  0.0025  0.0032 </r>
        <r>  0.0005  0.0008  0.0035 </r>
        <r>  0.0002  0.0005  0.0010 </r>
        <r>  0.0001  0.0031  0.0007 </r>
        <r>  0.0007  0.0017  0.0016 </r>
        <r>  0.0003  0.0014  0.0006 </r>
        <r>  0.0010  0.0025  0.0029 </r>
        <r>  0.0001  0.0011  0.0026 </r>
        <r>  0.0007  0.0005  0.0025 </r>
        <r>  0.0000  0.0002  0.0001 </r>
       </set>
       <set comment="band 206">
        <r>  0.0001  0.0003  0.0203 </r>
        <r>  0.0000  0.0001  0.0038 </r>
        <r>  0.0009  0.0000  0.0053 </r>
        <r>  0.0006  0.0002  0.0174 </r>
        <r>  0.0000  0.0001  0.0144 </r>
        <r>  0.0000  0.0000  0.0099 </r>
        <r>  0.0024  0.0001  0.0045 </r>
        <r>  0.0007  0.0003  0.0406 </r>
        <r>  0.0000  0.0060  0.0004 </r>
        <r>  0.0001  0.0129  0.0004 </r>
        <r>  0.0000  0.0037  0.0004 </r>
        <r>  0.0001  0.0033  0.0003 </r>
        <r>  0.0000  0.0046  0.0003 </r>
        <r>  0.0001  0.0042  0.0003 </r>
        <r>  0.0000  0.0047  0.0004 </r>
        <r>  0.0001  0.0122  0.0005 </r>
        <r>  0.0001  0.0009  0.0002 </r>
        <r>  0.0000  0.0001  0.0002 </r>
        <r>  0.0000  0.0016  0.0011 </r>
        <r>  0.0001  0.0014  0.0002 </r>
        <r>  0.0000  0.0005  0.0001 </r>
        <r>  0.0000  0.0000  0.0005 </r>
        <r>  0.0003  0.0023  0.0019 </r>
        <r>  0.0002  0.0018  0.0009 </r>
        <r>  0.0004  0.0016  0.0029 </r>
        <r>  0.0002  0.0002  0.0012 </r>
        <r>  0.0004  0.0017  0.0014 </r>
        <r>  0.0010  0.0040  0.0024 </r>
        <r>  0.0001  0.0002  0.0010 </r>
        <r>  0.0003  0.0020  0.0025 </r>
        <r>  0.0003  0.0026  0.0019 </r>
        <r>  0.0002  0.0015  0.0008 </r>
        <r>  0.0005  0.0019  0.0029 </r>
        <r>  0.0003  0.0001  0.0015 </r>
        <r>  0.0002  0.0003  0.0012 </r>
        <r>  0.0005  0.0024  0.0026 </r>
        <r>  0.0003  0.0014  0.0013 </r>
        <r>  0.0007  0.0043  0.0022 </r>
        <r>  0.0000  0.0001  0.0000 </r>
       </set>
       <set comment="band 207">
        <r>  0.0003  0.0002  0.0110 </r>
        <r>  0.0001  0.0005  0.0154 </r>
        <r>  0.0002  0.0001  0.0008 </r>
        <r>  0.0020  0.0009  0.0196 </r>
        <r>  0.0001  0.0004  0.0158 </r>
        <r>  0.0001  0.0001  0.0082 </r>
        <r>  0.0003  0.0005  0.0103 </r>
        <r>  0.0001  0.0013  0.0283 </r>
        <r>  0.0000  0.0036  0.0004 </r>
        <r>  0.0000  0.0086  0.0011 </r>
        <r>  0.0000  0.0011  0.0002 </r>
        <r>  0.0001  0.0143  0.0016 </r>
        <r>  0.0000  0.0016  0.0002 </r>
        <r>  0.0001  0.0141  0.0014 </r>
        <r>  0.0000  0.0010  0.0006 </r>
        <r>  0.0000  0.0079  0.0012 </r>
        <r>  0.0003  0.0012  0.0018 </r>
        <r>  0.0002  0.0009  0.0014 </r>
        <r>  0.0002  0.0030  0.0028 </r>
        <r>  0.0007  0.0007  0.0021 </r>
        <r>  0.0002  0.0004  0.0007 </r>
        <r>  0.0003  0.0061  0.0035 </r>
        <r>  0.0000  0.0010  0.0006 </r>
        <r>  0.0001  0.0021  0.0007 </r>
        <r>  0.0001  0.0005  0.0010 </r>
        <r>  0.0002  0.0017  0.0019 </r>
        <r>  0.0001  0.0009  0.0016 </r>
        <r>  0.0003  0.0009  0.0010 </r>
        <r>  0.0002  0.0005  0.0006 </r>
        <r>  0.0001  0.0015  0.0019 </r>
        <r>  0.0001  0.0020  0.0008 </r>
        <r>  0.0002  0.0018  0.0005 </r>
        <r>  0.0001  0.0006  0.0006 </r>
        <r>  0.0001  0.0019  0.0020 </r>
        <r>  0.0000  0.0004  0.0006 </r>
        <r>  0.0001  0.0017  0.0020 </r>
        <r>  0.0003  0.0004  0.0014 </r>
        <r>  0.0002  0.0014  0.0008 </r>
        <r>  0.0001  0.0006  0.0002 </r>
       </set>
       <set comment="band 208">
        <r>  0.0001  0.0003  0.0240 </r>
        <r>  0.0004  0.0012  0.0602 </r>
        <r>  0.0001  0.0001  0.0036 </r>
        <r>  0.0005  0.0006  0.0037 </r>
        <r>  0.0000  0.0012  0.0074 </r>
        <r>  0.0002  0.0001  0.0084 </r>
        <r>  0.0020  0.0001  0.0028 </r>
        <r>  0.0002  0.0002  0.0093 </r>
        <r>  0.0000  0.0023  0.0004 </r>
        <r>  0.0000  0.0033  0.0004 </r>
        <r>  0.0000  0.0021  0.0002 </r>
        <r>  0.0001  0.0020  0.0004 </r>
        <r>  0.0000  0.0012  0.0002 </r>
        <r>  0.0000  0.0063  0.0005 </r>
        <r>  0.0000  0.0026  0.0006 </r>
        <r>  0.0000  0.0041  0.0008 </r>
        <r>  0.0001  0.0005  0.0005 </r>
        <r>  0.0010  0.0047  0.0054 </r>
        <r>  0.0011  0.0030  0.0029 </r>
        <r>  0.0004  0.0005  0.0011 </r>
        <r>  0.0002  0.0017  0.0013 </r>
        <r>  0.0009  0.0028  0.0025 </r>
        <r>  0.0001  0.0004  0.0003 </r>
        <r>  0.0003  0.0004  0.0005 </r>
        <r>  0.0003  0.0002  0.0010 </r>
        <r>  0.0003  0.0022  0.0013 </r>
        <r>  0.0002  0.0018  0.0030 </r>
        <r>  0.0000  0.0016  0.0014 </r>
        <r>  0.0002  0.0009  0.0007 </r>
        <r>  0.0000  0.0015  0.0002 </r>
        <r>  0.0001  0.0021  0.0004 </r>
        <r>  0.0000  0.0006  0.0006 </r>
        <r>  0.0000  0.0017  0.0006 </r>
        <r>  0.0009  0.0010  0.0017 </r>
        <r>  0.0007  0.0008  0.0010 </r>
        <r>  0.0000  0.0005  0.0006 </r>
        <r>  0.0001  0.0027  0.0022 </r>
        <r>  0.0001  0.0016  0.0022 </r>
        <r>  0.0002  0.0004  0.0002 </r>
       </set>
      </set>
     </set>
    </set>
   </array>
  </projected>
 </calculation>
 <structure name="finalpos" >
  <crystal>
   <varray name="basis" >
    <v>       8.45648900       0.00000000       8.04030100 </v>
    <v>       0.00000000      11.72984700       0.00000000 </v>
    <v>      -8.45648900       0.00000000       8.04030100 </v>
   </varray>
   <i name="volume">   1595.08833419 </i>
   <varray name="rec_basis" >
    <v>       0.05912619      -0.00000000       0.06218673 </v>
    <v>       0.00000000       0.08525260      -0.00000000 </v>
    <v>      -0.05912619       0.00000000       0.06218673 </v>
   </varray>
  </crystal>
  <varray name="positions" >
   <v>       0.26709900       0.25000000       0.19969400 </v>
   <v>       0.77110800       0.25000000       0.71506600 </v>
   <v>       0.70479200       0.75000000       0.25802000 </v>
   <v>       0.21019700       0.75000000       0.78109800 </v>
   <v>       0.29564800       0.25000000       0.73633300 </v>
   <v>       0.78992800       0.25000000       0.22537300 </v>
   <v>       0.73253000       0.75000000       0.80631900 </v>
   <v>       0.22808800       0.75000000       0.27848600 </v>
   <v>       0.99980100       0.00068100       0.99919000 </v>
   <v>       0.49919800       0.00558500       0.49915200 </v>
   <v>       0.49994400       0.00044700       0.00022000 </v>
   <v>       0.00156200       0.00577700       0.50077600 </v>
   <v>       0.49994400       0.49955300       0.00022100 </v>
   <v>       0.00156200       0.49422300       0.50077600 </v>
   <v>       0.99980100       0.49931800       0.99919000 </v>
   <v>       0.49919800       0.49441500       0.49915200 </v>
   <v>       0.47171100       0.75000000       0.96993700 </v>
   <v>       0.96692200       0.25000000       0.96969100 </v>
   <v>       0.45557100       0.25000000       0.46827200 </v>
   <v>       0.02591000       0.75000000       0.03073100 </v>
   <v>       0.52843400       0.25000000       0.03422400 </v>
   <v>       0.03372400       0.25000000       0.54308500 </v>
   <v>       0.24758400       0.46850100       0.94979400 </v>
   <v>       0.74790200       0.46911300       0.44927100 </v>
   <v>       0.45203300       0.53710600       0.25039400 </v>
   <v>       0.95108900       0.53744900       0.74525900 </v>
   <v>       0.55100000       0.03027600       0.75151300 </v>
   <v>       0.04970500       0.03231100       0.25321200 </v>
   <v>       0.75234100       0.97063000       0.05000700 </v>
   <v>       0.25222700       0.95461000       0.54665500 </v>
   <v>       0.24758400       0.03149800       0.94979400 </v>
   <v>       0.74790200       0.03088700       0.44927100 </v>
   <v>       0.45203300       0.96289400       0.25039400 </v>
   <v>       0.95108900       0.96255100       0.74525900 </v>
   <v>       0.75234100       0.52937000       0.05000700 </v>
   <v>       0.25222700       0.54539000       0.54665500 </v>
   <v>       0.55100000       0.46972400       0.75151300 </v>
   <v>       0.04970500       0.46768900       0.25321200 </v>
   <v>       0.75477900       0.75000000       0.49623700 </v>
  </varray>
 </structure>
</modeling>
