CsPbBr3 cubic bulk                      
           1
     8.456489    0.000000    8.040301
     0.000000   11.729847    0.000000
    -8.456489    0.000000    8.040301
   Cs   Pb   Br
   8   8  23
Direct configuration=     1
   0.26709900  0.25000000  0.19969400
   0.77110800  0.25000000  0.71506600
   0.70479200  0.75000000  0.25802000
   0.21019700  0.75000000  0.78109800
   0.29564800  0.25000000  0.73633300
   0.78992800  0.25000000  0.22537300
   0.73253000  0.75000000  0.80631900
   0.22808800  0.75000000  0.27848600
   0.99980100  0.00068100  0.99919000
   0.49919800  0.00558500  0.49915200
   0.49994400  0.00044700  0.00022000
   0.00156200  0.00577700  0.50077600
   0.49994400  0.49955300  0.00022100
   0.00156200  0.49422300  0.50077600
   0.99980100  0.49931800  0.99919000
   0.49919800  0.49441500  0.49915200
   0.47171100  0.75000000  0.96993700
   0.96692200  0.25000000  0.96969100
   0.45557100  0.25000000  0.46827200
   0.02591000  0.75000000  0.03073100
   0.52843400  0.25000000  0.03422400
   0.03372400  0.25000000  0.54308500
   0.24758400  0.46850100  0.94979400
   0.74790200  0.46911300  0.44927100
   0.45203300  0.53710600  0.25039400
   0.95108900  0.53744900  0.74525900
   0.55100000  0.03027600  0.75151300
   0.04970500  0.03231100  0.25321200
   0.75234100  0.97063000  0.05000700
   0.25222700  0.95461000  0.54665500
   0.24758400  0.03149800  0.94979400
   0.74790200  0.03088700  0.44927100
   0.45203300  0.96289400  0.25039400
   0.95108900  0.96255100  0.74525900
   0.75234100  0.52937000  0.05000700
   0.25222700  0.54539000  0.54665500
   0.55100000  0.46972400  0.75151300
   0.04970500  0.46768900  0.25321200
   0.75477900  0.75000000  0.49623700
