  20  20   1   0
  0.4082939E+02  0.8099864E-09  0.1211672E-08  0.8320320E-09  0.5000000E-15
   1.0000000000000000E-004
  CAR 
 CsPbBr3 cubic bulk                      
      8.41681630    -22.33526104  301      0.44690292      1.00000000
    -22.335  0.0000E+00  0.0000E+00
    -22.233  0.0000E+00  0.0000E+00
    -22.130  0.0000E+00  0.0000E+00
    -22.028  0.0000E+00  0.0000E+00
    -21.925  0.0000E+00  0.0000E+00
    -21.823  0.0000E+00  0.0000E+00
    -21.720  0.0000E+00  0.0000E+00
    -21.618  0.0000E+00  0.0000E+00
    -21.515  0.0000E+00  0.0000E+00
    -21.413  0.0000E+00  0.0000E+00
    -21.310  0.0000E+00  0.0000E+00
    -21.208  0.0000E+00  0.0000E+00
    -21.105  0.0000E+00  0.0000E+00
    -21.003  0.0000E+00  0.0000E+00
    -20.900  0.7804E+02  0.8000E+01
    -20.798  0.0000E+00  0.8000E+01
    -20.695  0.0000E+00  0.8000E+01
    -20.593  0.0000E+00  0.8000E+01
    -20.490  0.0000E+00  0.8000E+01
    -20.388  0.0000E+00  0.8000E+01
    -20.285  0.0000E+00  0.8000E+01
    -20.183  0.0000E+00  0.8000E+01
    -20.080  0.0000E+00  0.8000E+01
    -19.978  0.0000E+00  0.8000E+01
    -19.875  0.0000E+00  0.8000E+01
    -19.773  0.0000E+00  0.8000E+01
    -19.670  0.0000E+00  0.8000E+01
    -19.568  0.0000E+00  0.8000E+01
    -19.465  0.0000E+00  0.8000E+01
    -19.363  0.0000E+00  0.8000E+01
    -19.260  0.0000E+00  0.8000E+01
    -19.158  0.0000E+00  0.8000E+01
    -19.055  0.0000E+00  0.8000E+01
    -18.953  0.0000E+00  0.8000E+01
    -18.850  0.0000E+00  0.8000E+01
    -18.748  0.0000E+00  0.8000E+01
    -18.645  0.0000E+00  0.8000E+01
    -18.543  0.0000E+00  0.8000E+01
    -18.440  0.0000E+00  0.8000E+01
    -18.337  0.0000E+00  0.8000E+01
    -18.235  0.0000E+00  0.8000E+01
    -18.132  0.0000E+00  0.8000E+01
    -18.030  0.0000E+00  0.8000E+01
    -17.927  0.0000E+00  0.8000E+01
    -17.825  0.0000E+00  0.8000E+01
    -17.722  0.0000E+00  0.8000E+01
    -17.620  0.0000E+00  0.8000E+01
    -17.517  0.0000E+00  0.8000E+01
    -17.415  0.0000E+00  0.8000E+01
    -17.312  0.0000E+00  0.8000E+01
    -17.210  0.0000E+00  0.8000E+01
    -17.107  0.0000E+00  0.8000E+01
    -17.005  0.0000E+00  0.8000E+01
    -16.902  0.0000E+00  0.8000E+01
    -16.800  0.0000E+00  0.8000E+01
    -16.697  0.0000E+00  0.8000E+01
    -16.595  0.1418E-09  0.8000E+01
    -16.492  0.9579E+02  0.1782E+02
    -16.390  0.1815E+03  0.4161E+02
    -16.287  0.0000E+00  0.4800E+02
    -16.185  0.0000E+00  0.4800E+02
    -16.082  0.0000E+00  0.4800E+02
    -15.980  0.0000E+00  0.4800E+02
    -15.877  0.0000E+00  0.4800E+02
    -15.775  0.0000E+00  0.4800E+02
    -15.672  0.0000E+00  0.4800E+02
    -15.570  0.0000E+00  0.4800E+02
    -15.467  0.0000E+00  0.4800E+02
    -15.365  0.0000E+00  0.4800E+02
    -15.262  0.0000E+00  0.4800E+02
    -15.160  0.0000E+00  0.4800E+02
    -15.057  0.0000E+00  0.4800E+02
    -14.955  0.0000E+00  0.4800E+02
    -14.852  0.0000E+00  0.4800E+02
    -14.750  0.0000E+00  0.4800E+02
    -14.647  0.0000E+00  0.4800E+02
    -14.545  0.0000E+00  0.4800E+02
    -14.442  0.0000E+00  0.4800E+02
    -14.340  0.1093E+01  0.4811E+02
    -14.237  0.1541E+02  0.5013E+02
    -14.135  0.2581E+02  0.5376E+02
    -14.032  0.2995E+02  0.5774E+02
    -13.930  0.4344E+02  0.6412E+02
    -13.827  0.4995E+02  0.7012E+02
    -13.725  0.9755E+01  0.7200E+02
    -13.622  0.0000E+00  0.7200E+02
    -13.520  0.0000E+00  0.7200E+02
    -13.417  0.0000E+00  0.7200E+02
    -13.315  0.0000E+00  0.7200E+02
    -13.212  0.0000E+00  0.7200E+02
    -13.110  0.0000E+00  0.7200E+02
    -13.007  0.0000E+00  0.7200E+02
    -12.905  0.0000E+00  0.7200E+02
    -12.802  0.0000E+00  0.7200E+02
    -12.700  0.0000E+00  0.7200E+02
    -12.597  0.0000E+00  0.7200E+02
    -12.495  0.0000E+00  0.7200E+02
    -12.392  0.0000E+00  0.7200E+02
    -12.290  0.0000E+00  0.7200E+02
    -12.187  0.0000E+00  0.7200E+02
    -12.085  0.0000E+00  0.7200E+02
    -11.982  0.0000E+00  0.7200E+02
    -11.880  0.0000E+00  0.7200E+02
    -11.777  0.0000E+00  0.7200E+02
    -11.675  0.0000E+00  0.7200E+02
    -11.572  0.0000E+00  0.7200E+02
    -11.470  0.0000E+00  0.7200E+02
    -11.367  0.0000E+00  0.7200E+02
    -11.265  0.0000E+00  0.7200E+02
    -11.162  0.0000E+00  0.7200E+02
    -11.059  0.0000E+00  0.7200E+02
    -10.957  0.0000E+00  0.7200E+02
    -10.854  0.0000E+00  0.7200E+02
    -10.752  0.0000E+00  0.7200E+02
    -10.649  0.0000E+00  0.7200E+02
    -10.547  0.0000E+00  0.7200E+02
    -10.444  0.0000E+00  0.7200E+02
    -10.342  0.0000E+00  0.7200E+02
    -10.239  0.0000E+00  0.7200E+02
    -10.137  0.0000E+00  0.7200E+02
    -10.034  0.0000E+00  0.7200E+02
     -9.932  0.0000E+00  0.7200E+02
     -9.829  0.0000E+00  0.7200E+02
     -9.727  0.0000E+00  0.7200E+02
     -9.624  0.0000E+00  0.7200E+02
     -9.522  0.0000E+00  0.7200E+02
     -9.419  0.0000E+00  0.7200E+02
     -9.317  0.0000E+00  0.7200E+02
     -9.214  0.0000E+00  0.7200E+02
     -9.112  0.0000E+00  0.7200E+02
     -9.009  0.0000E+00  0.7200E+02
     -8.907  0.0000E+00  0.7200E+02
     -8.804  0.0000E+00  0.7200E+02
     -8.702  0.0000E+00  0.7200E+02
     -8.599  0.0000E+00  0.7200E+02
     -8.497  0.0000E+00  0.7200E+02
     -8.394  0.0000E+00  0.7200E+02
     -8.292  0.0000E+00  0.7200E+02
     -8.189  0.1074E+01  0.7211E+02
     -8.087  0.0000E+00  0.7211E+02
     -7.984  0.4936E+01  0.7262E+02
     -7.882  0.2406E-04  0.7278E+02
     -7.779  0.1102E+02  0.7391E+02
     -7.677  0.2668E-03  0.7422E+02
     -7.574  0.1301E+02  0.7556E+02
     -7.472  0.8562E+01  0.7643E+02
     -7.369  0.1868E+02  0.7836E+02
     -7.267  0.1875E+03  0.1010E+03
     -7.164  0.8675E+01  0.1027E+03
     -7.062  0.4336E+01  0.1032E+03
     -6.959  0.4322E+01  0.1037E+03
     -6.857  0.2168E+01  0.1039E+03
     -6.754  0.0000E+00  0.1039E+03
     -6.652  0.8295E-04  0.1039E+03
     -6.549  0.1084E+01  0.1040E+03
     -6.447  0.0000E+00  0.1040E+03
     -6.344  0.0000E+00  0.1040E+03
     -6.242  0.0000E+00  0.1040E+03
     -6.139  0.0000E+00  0.1040E+03
     -6.037  0.0000E+00  0.1040E+03
     -5.934  0.0000E+00  0.1040E+03
     -5.832  0.0000E+00  0.1040E+03
     -5.729  0.0000E+00  0.1040E+03
     -5.627  0.0000E+00  0.1040E+03
     -5.524  0.0000E+00  0.1040E+03
     -5.422  0.0000E+00  0.1040E+03
     -5.319  0.0000E+00  0.1040E+03
     -5.217  0.0000E+00  0.1040E+03
     -5.114  0.0000E+00  0.1040E+03
     -5.012  0.0000E+00  0.1040E+03
     -4.909  0.0000E+00  0.1040E+03
     -4.807  0.0000E+00  0.1040E+03
     -4.704  0.0000E+00  0.1040E+03
     -4.602  0.0000E+00  0.1040E+03
     -4.499  0.0000E+00  0.1040E+03
     -4.397  0.0000E+00  0.1040E+03
     -4.294  0.0000E+00  0.1040E+03
     -4.192  0.0000E+00  0.1040E+03
     -4.089  0.0000E+00  0.1040E+03
     -3.987  0.0000E+00  0.1040E+03
     -3.884  0.0000E+00  0.1040E+03
     -3.782  0.0000E+00  0.1040E+03
     -3.679  0.0000E+00  0.1040E+03
     -3.576  0.0000E+00  0.1040E+03
     -3.474  0.0000E+00  0.1040E+03
     -3.371  0.3961E+00  0.1040E+03
     -3.269  0.5048E+01  0.1046E+03
     -3.166  0.2491E+02  0.1072E+03
     -3.064  0.9536E+01  0.1086E+03
     -2.961  0.1094E+02  0.1099E+03
     -2.859  0.4939E+01  0.1107E+03
     -2.756  0.1739E+02  0.1131E+03
     -2.654  0.6504E+01  0.1140E+03
     -2.551  0.5442E-03  0.1140E+03
     -2.449  0.1174E+02  0.1152E+03
     -2.346  0.2168E+02  0.1178E+03
     -2.244  0.1102E+02  0.1189E+03
     -2.141  0.2037E+02  0.1214E+03
     -2.039  0.2229E+02  0.1242E+03
     -1.936  0.1321E+02  0.1268E+03
     -1.834  0.6405E+01  0.1277E+03
     -1.731  0.3153E+02  0.1313E+03
     -1.629  0.1778E+02  0.1345E+03
     -1.526  0.3023E+02  0.1378E+03
     -1.424  0.4677E+02  0.1437E+03
     -1.321  0.5650E+02  0.1507E+03
     -1.219  0.5823E+02  0.1580E+03
     -1.116  0.4008E+02  0.1641E+03
     -1.014  0.1951E+02  0.1679E+03
     -0.911  0.6680E+01  0.1686E+03
     -0.809  0.1734E+02  0.1710E+03
     -0.706  0.7137E+01  0.1717E+03
     -0.604  0.2116E+02  0.1742E+03
     -0.501  0.3585E+01  0.1746E+03
     -0.399  0.0000E+00  0.1747E+03
     -0.296  0.0000E+00  0.1747E+03
     -0.194  0.8665E+01  0.1756E+03
     -0.091  0.1084E+01  0.1757E+03
      0.011  0.2168E+01  0.1759E+03
      0.114  0.0000E+00  0.1759E+03
      0.216  0.0000E+00  0.1759E+03
      0.319  0.1067E-05  0.1759E+03
      0.421  0.1084E+01  0.1760E+03
      0.524  0.0000E+00  0.1760E+03
      0.626  0.0000E+00  0.1760E+03
      0.729  0.0000E+00  0.1760E+03
      0.831  0.0000E+00  0.1760E+03
      0.934  0.0000E+00  0.1760E+03
      1.036  0.0000E+00  0.1760E+03
      1.139  0.0000E+00  0.1760E+03
      1.241  0.0000E+00  0.1760E+03
      1.344  0.0000E+00  0.1760E+03
      1.446  0.0000E+00  0.1760E+03
      1.549  0.0000E+00  0.1760E+03
      1.651  0.0000E+00  0.1760E+03
      1.754  0.0000E+00  0.1760E+03
      1.856  0.0000E+00  0.1760E+03
      1.959  0.0000E+00  0.1760E+03
      2.061  0.0000E+00  0.1760E+03
      2.164  0.0000E+00  0.1760E+03
      2.266  0.0000E+00  0.1760E+03
      2.369  0.0000E+00  0.1760E+03
      2.471  0.7027E-11  0.1760E+03
      2.574  0.1084E+01  0.1761E+03
      2.676  0.1548E-09  0.1761E+03
      2.779  0.5420E+01  0.1767E+03
      2.881  0.5420E+01  0.1772E+03
      2.984  0.2168E+01  0.1774E+03
      3.086  0.1084E+02  0.1786E+03
      3.189  0.5451E+01  0.1791E+03
      3.291  0.8671E+01  0.1801E+03
      3.394  0.2100E+01  0.1803E+03
      3.496  0.1642E+01  0.1808E+03
      3.599  0.2772E-03  0.1809E+03
      3.701  0.8671E+01  0.1818E+03
      3.804  0.1079E+02  0.1829E+03
      3.907  0.9738E+01  0.1839E+03
      4.009  0.5605E+01  0.1846E+03
      4.112  0.2148E+01  0.1858E+03
      4.214  0.1300E+02  0.1871E+03
      4.317  0.8672E+01  0.1880E+03
      4.419  0.2802E+01  0.1883E+03
      4.522  0.8672E+01  0.1898E+03
      4.624  0.3563E-01  0.1898E+03
      4.727  0.1084E+01  0.1901E+03
      4.829  0.1360E+00  0.1901E+03
      4.932  0.1263E-04  0.1906E+03
      5.034  0.1053E+02  0.1916E+03
      5.137  0.8852E+01  0.1928E+03
      5.239  0.8629E+01  0.1941E+03
      5.342  0.1301E+02  0.1954E+03
      5.444  0.1084E+01  0.1956E+03
      5.547  0.1073E+02  0.1967E+03
      5.649  0.2980E+01  0.1970E+03
      5.752  0.4683E+01  0.1979E+03
      5.854  0.2803E+02  0.2011E+03
      5.957  0.3938E+01  0.2017E+03
      6.059  0.8545E+01  0.2029E+03
      6.162  0.1645E+02  0.2049E+03
      6.264  0.8906E+01  0.2064E+03
      6.367  0.1725E+02  0.2082E+03
      6.469  0.1828E+02  0.2101E+03
      6.572  0.2631E+02  0.2130E+03
      6.674  0.3469E+02  0.2170E+03
      6.777  0.1801E+02  0.2191E+03
      6.879  0.4747E+01  0.2216E+03
      6.982  0.5396E+00  0.2229E+03
      7.084  0.4336E+01  0.2240E+03
      7.187  0.0000E+00  0.2240E+03
      7.289  0.0000E+00  0.2240E+03
      7.392  0.0000E+00  0.2240E+03
      7.494  0.0000E+00  0.2240E+03
      7.597  0.0000E+00  0.2240E+03
      7.699  0.0000E+00  0.2240E+03
      7.802  0.0000E+00  0.2240E+03
      7.904  0.0000E+00  0.2240E+03
      8.007  0.0000E+00  0.2240E+03
      8.109  0.0000E+00  0.2240E+03
      8.212  0.0000E+00  0.2240E+03
      8.314  0.0000E+00  0.2240E+03
      8.417  0.0000E+00  0.2240E+03
      8.41681630    -22.33526104  301      0.44690292      1.00000000
    -22.335  0.0000E+00  0.0000E+00  0.0000E+00
    -22.233  0.0000E+00  0.0000E+00  0.0000E+00
    -22.130  0.0000E+00  0.0000E+00  0.0000E+00
    -22.028  0.0000E+00  0.0000E+00  0.0000E+00
    -21.925  0.0000E+00  0.0000E+00  0.0000E+00
    -21.823  0.0000E+00  0.0000E+00  0.0000E+00
    -21.720  0.0000E+00  0.0000E+00  0.0000E+00
    -21.618  0.0000E+00  0.0000E+00  0.0000E+00
    -21.515  0.0000E+00  0.0000E+00  0.0000E+00
    -21.413  0.0000E+00  0.0000E+00  0.0000E+00
    -21.310  0.0000E+00  0.0000E+00  0.0000E+00
    -21.208  0.0000E+00  0.0000E+00  0.0000E+00
    -21.105  0.0000E+00  0.0000E+00  0.0000E+00
    -21.003  0.0000E+00  0.0000E+00  0.0000E+00
    -20.900  0.1732E+02  0.9192E-05  0.1068E-04
    -20.798  0.0000E+00  0.0000E+00  0.0000E+00
    -20.695  0.0000E+00  0.0000E+00  0.0000E+00
    -20.593  0.0000E+00  0.0000E+00  0.0000E+00
    -20.490  0.0000E+00  0.0000E+00  0.0000E+00
    -20.388  0.0000E+00  0.0000E+00  0.0000E+00
    -20.285  0.0000E+00  0.0000E+00  0.0000E+00
    -20.183  0.0000E+00  0.0000E+00  0.0000E+00
    -20.080  0.0000E+00  0.0000E+00  0.0000E+00
    -19.978  0.0000E+00  0.0000E+00  0.0000E+00
    -19.875  0.0000E+00  0.0000E+00  0.0000E+00
    -19.773  0.0000E+00  0.0000E+00  0.0000E+00
    -19.670  0.0000E+00  0.0000E+00  0.0000E+00
    -19.568  0.0000E+00  0.0000E+00  0.0000E+00
    -19.465  0.0000E+00  0.0000E+00  0.0000E+00
    -19.363  0.0000E+00  0.0000E+00  0.0000E+00
    -19.260  0.0000E+00  0.0000E+00  0.0000E+00
    -19.158  0.0000E+00  0.0000E+00  0.0000E+00
    -19.055  0.0000E+00  0.0000E+00  0.0000E+00
    -18.953  0.0000E+00  0.0000E+00  0.0000E+00
    -18.850  0.0000E+00  0.0000E+00  0.0000E+00
    -18.748  0.0000E+00  0.0000E+00  0.0000E+00
    -18.645  0.0000E+00  0.0000E+00  0.0000E+00
    -18.543  0.0000E+00  0.0000E+00  0.0000E+00
    -18.440  0.0000E+00  0.0000E+00  0.0000E+00
    -18.337  0.0000E+00  0.0000E+00  0.0000E+00
    -18.235  0.0000E+00  0.0000E+00  0.0000E+00
    -18.132  0.0000E+00  0.0000E+00  0.0000E+00
    -18.030  0.0000E+00  0.0000E+00  0.0000E+00
    -17.927  0.0000E+00  0.0000E+00  0.0000E+00
    -17.825  0.0000E+00  0.0000E+00  0.0000E+00
    -17.722  0.0000E+00  0.0000E+00  0.0000E+00
    -17.620  0.0000E+00  0.0000E+00  0.0000E+00
    -17.517  0.0000E+00  0.0000E+00  0.0000E+00
    -17.415  0.0000E+00  0.0000E+00  0.0000E+00
    -17.312  0.0000E+00  0.0000E+00  0.0000E+00
    -17.210  0.0000E+00  0.0000E+00  0.0000E+00
    -17.107  0.0000E+00  0.0000E+00  0.0000E+00
    -17.005  0.0000E+00  0.0000E+00  0.0000E+00
    -16.902  0.0000E+00  0.0000E+00  0.0000E+00
    -16.800  0.0000E+00  0.0000E+00  0.0000E+00
    -16.697  0.0000E+00  0.0000E+00  0.0000E+00
    -16.595  0.5512E-15  0.2124E-15  0.1875E-16
    -16.492  0.1020E-03  0.7588E-04  0.1361E-04
    -16.390  0.3286E-04  0.1909E-04  0.2272E-05
    -16.287  0.0000E+00  0.0000E+00  0.0000E+00
    -16.185  0.0000E+00  0.0000E+00  0.0000E+00
    -16.082  0.0000E+00  0.0000E+00  0.0000E+00
    -15.980  0.0000E+00  0.0000E+00  0.0000E+00
    -15.877  0.0000E+00  0.0000E+00  0.0000E+00
    -15.775  0.0000E+00  0.0000E+00  0.0000E+00
    -15.672  0.0000E+00  0.0000E+00  0.0000E+00
    -15.570  0.0000E+00  0.0000E+00  0.0000E+00
    -15.467  0.0000E+00  0.0000E+00  0.0000E+00
    -15.365  0.0000E+00  0.0000E+00  0.0000E+00
    -15.262  0.0000E+00  0.0000E+00  0.0000E+00
    -15.160  0.0000E+00  0.0000E+00  0.0000E+00
    -15.057  0.0000E+00  0.0000E+00  0.0000E+00
    -14.955  0.0000E+00  0.0000E+00  0.0000E+00
    -14.852  0.0000E+00  0.0000E+00  0.0000E+00
    -14.750  0.0000E+00  0.0000E+00  0.0000E+00
    -14.647  0.0000E+00  0.0000E+00  0.0000E+00
    -14.545  0.0000E+00  0.0000E+00  0.0000E+00
    -14.442  0.0000E+00  0.0000E+00  0.0000E+00
    -14.340  0.3660E-03  0.1514E-05  0.1924E-05
    -14.237  0.2260E-02  0.1968E-02  0.3610E-04
    -14.135  0.6192E-03  0.3371E-02  0.1567E-03
    -14.032  0.2147E-02  0.4709E-02  0.3611E-03
    -13.930  0.4829E-03  0.3107E-02  0.3098E-03
    -13.827  0.1242E-02  0.3511E-02  0.4101E-03
    -13.725  0.4319E-03  0.6672E-03  0.6350E-04
    -13.622  0.0000E+00  0.0000E+00  0.0000E+00
    -13.520  0.0000E+00  0.0000E+00  0.0000E+00
    -13.417  0.0000E+00  0.0000E+00  0.0000E+00
    -13.315  0.0000E+00  0.0000E+00  0.0000E+00
    -13.212  0.0000E+00  0.0000E+00  0.0000E+00
    -13.110  0.0000E+00  0.0000E+00  0.0000E+00
    -13.007  0.0000E+00  0.0000E+00  0.0000E+00
    -12.905  0.0000E+00  0.0000E+00  0.0000E+00
    -12.802  0.0000E+00  0.0000E+00  0.0000E+00
    -12.700  0.0000E+00  0.0000E+00  0.0000E+00
    -12.597  0.0000E+00  0.0000E+00  0.0000E+00
    -12.495  0.0000E+00  0.0000E+00  0.0000E+00
    -12.392  0.0000E+00  0.0000E+00  0.0000E+00
    -12.290  0.0000E+00  0.0000E+00  0.0000E+00
    -12.187  0.0000E+00  0.0000E+00  0.0000E+00
    -12.085  0.0000E+00  0.0000E+00  0.0000E+00
    -11.982  0.0000E+00  0.0000E+00  0.0000E+00
    -11.880  0.0000E+00  0.0000E+00  0.0000E+00
    -11.777  0.0000E+00  0.0000E+00  0.0000E+00
    -11.675  0.0000E+00  0.0000E+00  0.0000E+00
    -11.572  0.0000E+00  0.0000E+00  0.0000E+00
    -11.470  0.0000E+00  0.0000E+00  0.0000E+00
    -11.367  0.0000E+00  0.0000E+00  0.0000E+00
    -11.265  0.0000E+00  0.0000E+00  0.0000E+00
    -11.162  0.0000E+00  0.0000E+00  0.0000E+00
    -11.059  0.0000E+00  0.0000E+00  0.0000E+00
    -10.957  0.0000E+00  0.0000E+00  0.0000E+00
    -10.854  0.0000E+00  0.0000E+00  0.0000E+00
    -10.752  0.0000E+00  0.0000E+00  0.0000E+00
    -10.649  0.0000E+00  0.0000E+00  0.0000E+00
    -10.547  0.0000E+00  0.0000E+00  0.0000E+00
    -10.444  0.0000E+00  0.0000E+00  0.0000E+00
    -10.342  0.0000E+00  0.0000E+00  0.0000E+00
    -10.239  0.0000E+00  0.0000E+00  0.0000E+00
    -10.137  0.0000E+00  0.0000E+00  0.0000E+00
    -10.034  0.0000E+00  0.0000E+00  0.0000E+00
     -9.932  0.0000E+00  0.0000E+00  0.0000E+00
     -9.829  0.0000E+00  0.0000E+00  0.0000E+00
     -9.727  0.0000E+00  0.0000E+00  0.0000E+00
     -9.624  0.0000E+00  0.0000E+00  0.0000E+00
     -9.522  0.0000E+00  0.0000E+00  0.0000E+00
     -9.419  0.0000E+00  0.0000E+00  0.0000E+00
     -9.317  0.0000E+00  0.0000E+00  0.0000E+00
     -9.214  0.0000E+00  0.0000E+00  0.0000E+00
     -9.112  0.0000E+00  0.0000E+00  0.0000E+00
     -9.009  0.0000E+00  0.0000E+00  0.0000E+00
     -8.907  0.0000E+00  0.0000E+00  0.0000E+00
     -8.804  0.0000E+00  0.0000E+00  0.0000E+00
     -8.702  0.0000E+00  0.0000E+00  0.0000E+00
     -8.599  0.0000E+00  0.0000E+00  0.0000E+00
     -8.497  0.0000E+00  0.0000E+00  0.0000E+00
     -8.394  0.0000E+00  0.0000E+00  0.0000E+00
     -8.292  0.0000E+00  0.0000E+00  0.0000E+00
     -8.189  0.3913E-17  0.1022E-03  0.1400E-05
     -8.087  0.0000E+00  0.0000E+00  0.0000E+00
     -7.984  0.4371E-06  0.2416E-02  0.1052E-04
     -7.882  0.1207E-22  0.9849E-08  0.1745E-09
     -7.779  0.6482E-05  0.1337E-01  0.4719E-04
     -7.677  0.1457E-09  0.5536E-06  0.1359E-08
     -7.574  0.4736E-05  0.6824E-01  0.5196E-04
     -7.472  0.8149E-05  0.9890E-01  0.2900E-04
     -7.369  0.2761E-04  0.1790E+01  0.1838E-04
     -7.267  0.4315E-04  0.3582E+02  0.5626E-04
     -7.164  0.3435E-04  0.4299E+00  0.2942E-04
     -7.062  0.2404E-04  0.9943E-01  0.9733E-05
     -6.959  0.3694E-04  0.2117E-01  0.1010E-04
     -6.857  0.1625E-04  0.3905E-02  0.1048E-04
     -6.754  0.0000E+00  0.0000E+00  0.0000E+00
     -6.652  0.9805E-09  0.7671E-07  0.2570E-09
     -6.549  0.1281E-04  0.1002E-02  0.3357E-05
     -6.447  0.0000E+00  0.0000E+00  0.0000E+00
     -6.344  0.0000E+00  0.0000E+00  0.0000E+00
     -6.242  0.0000E+00  0.0000E+00  0.0000E+00
     -6.139  0.0000E+00  0.0000E+00  0.0000E+00
     -6.037  0.0000E+00  0.0000E+00  0.0000E+00
     -5.934  0.0000E+00  0.0000E+00  0.0000E+00
     -5.832  0.0000E+00  0.0000E+00  0.0000E+00
     -5.729  0.0000E+00  0.0000E+00  0.0000E+00
     -5.627  0.0000E+00  0.0000E+00  0.0000E+00
     -5.524  0.0000E+00  0.0000E+00  0.0000E+00
     -5.422  0.0000E+00  0.0000E+00  0.0000E+00
     -5.319  0.0000E+00  0.0000E+00  0.0000E+00
     -5.217  0.0000E+00  0.0000E+00  0.0000E+00
     -5.114  0.0000E+00  0.0000E+00  0.0000E+00
     -5.012  0.0000E+00  0.0000E+00  0.0000E+00
     -4.909  0.0000E+00  0.0000E+00  0.0000E+00
     -4.807  0.0000E+00  0.0000E+00  0.0000E+00
     -4.704  0.0000E+00  0.0000E+00  0.0000E+00
     -4.602  0.0000E+00  0.0000E+00  0.0000E+00
     -4.499  0.0000E+00  0.0000E+00  0.0000E+00
     -4.397  0.0000E+00  0.0000E+00  0.0000E+00
     -4.294  0.0000E+00  0.0000E+00  0.0000E+00
     -4.192  0.0000E+00  0.0000E+00  0.0000E+00
     -4.089  0.0000E+00  0.0000E+00  0.0000E+00
     -3.987  0.0000E+00  0.0000E+00  0.0000E+00
     -3.884  0.0000E+00  0.0000E+00  0.0000E+00
     -3.782  0.0000E+00  0.0000E+00  0.0000E+00
     -3.679  0.0000E+00  0.0000E+00  0.0000E+00
     -3.576  0.0000E+00  0.0000E+00  0.0000E+00
     -3.474  0.0000E+00  0.0000E+00  0.0000E+00
     -3.371  0.1524E-05  0.6745E-03  0.6228E-05
     -3.269  0.9688E-05  0.5453E-02  0.2750E-03
     -3.166  0.3330E-04  0.2301E-01  0.2892E-02
     -3.064  0.1623E-04  0.3185E-02  0.8772E-03
     -2.961  0.1559E-03  0.1164E-01  0.6467E-03
     -2.859  0.2949E-04  0.4557E-02  0.3905E-03
     -2.756  0.1820E-03  0.1110E-01  0.8233E-03
     -2.654  0.1246E-16  0.8082E-03  0.3529E-03
     -2.551  0.4455E-08  0.1054E-05  0.9368E-07
     -2.449  0.5789E-03  0.2404E-01  0.1620E-02
     -2.346  0.1552E-02  0.1365E-01  0.2302E-02
     -2.244  0.3246E-02  0.5587E-02  0.1271E-02
     -2.141  0.7067E-02  0.2842E-01  0.1934E-02
     -2.039  0.1713E-01  0.2266E-01  0.4925E-02
     -1.936  0.4449E-02  0.3721E-01  0.1721E-02
     -1.834  0.1187E-03  0.4414E-01  0.1073E-02
     -1.731  0.3382E-02  0.9497E-01  0.8264E-02
     -1.629  0.1164E-02  0.6022E-01  0.6316E-02
     -1.526  0.1885E-02  0.6307E-01  0.1178E-01
     -1.424  0.5868E-02  0.8557E-01  0.2019E-01
     -1.321  0.5512E-02  0.8802E-01  0.1699E-01
     -1.219  0.2357E-02  0.8015E-01  0.1109E-01
     -1.116  0.1015E-02  0.5597E-01  0.1103E-01
     -1.014  0.9195E-03  0.9414E-02  0.4246E-02
     -0.911  0.4862E-03  0.7278E-02  0.2117E-02
     -0.809  0.5515E-03  0.1307E-01  0.4190E-02
     -0.706  0.2326E-03  0.3888E-02  0.2709E-03
     -0.604  0.3169E-03  0.5062E-02  0.2377E-02
     -0.501  0.8454E-16  0.1854E-02  0.3402E-04
     -0.399  0.0000E+00  0.0000E+00  0.0000E+00
     -0.296  0.0000E+00  0.0000E+00  0.0000E+00
     -0.194  0.1090E-12  0.4419E-03  0.1499E-02
     -0.091  0.2562E-05  0.4850E-04  0.1317E-03
      0.011  0.2992E-05  0.6957E-04  0.1051E-03
      0.114  0.0000E+00  0.0000E+00  0.0000E+00
      0.216  0.0000E+00  0.0000E+00  0.0000E+00
      0.319  0.4866E-22  0.6569E-11  0.1035E-10
      0.421  0.4945E-16  0.6675E-05  0.1052E-04
      0.524  0.0000E+00  0.0000E+00  0.0000E+00
      0.626  0.0000E+00  0.0000E+00  0.0000E+00
      0.729  0.0000E+00  0.0000E+00  0.0000E+00
      0.831  0.0000E+00  0.0000E+00  0.0000E+00
      0.934  0.0000E+00  0.0000E+00  0.0000E+00
      1.036  0.0000E+00  0.0000E+00  0.0000E+00
      1.139  0.0000E+00  0.0000E+00  0.0000E+00
      1.241  0.0000E+00  0.0000E+00  0.0000E+00
      1.344  0.0000E+00  0.0000E+00  0.0000E+00
      1.446  0.0000E+00  0.0000E+00  0.0000E+00
      1.549  0.0000E+00  0.0000E+00  0.0000E+00
      1.651  0.0000E+00  0.0000E+00  0.0000E+00
      1.754  0.0000E+00  0.0000E+00  0.0000E+00
      1.856  0.0000E+00  0.0000E+00  0.0000E+00
      1.959  0.0000E+00  0.0000E+00  0.0000E+00
      2.061  0.0000E+00  0.0000E+00  0.0000E+00
      2.164  0.0000E+00  0.0000E+00  0.0000E+00
      2.266  0.0000E+00  0.0000E+00  0.0000E+00
      2.369  0.0000E+00  0.0000E+00  0.0000E+00
      2.471  0.4441E-18  0.2408E-15  0.3699E-14
      2.574  0.6850E-07  0.3714E-04  0.5706E-03
      2.676  0.5744E-14  0.2334E-13  0.4858E-13
      2.779  0.1200E-03  0.5366E-03  0.2606E-02
      2.881  0.6743E-05  0.1400E-02  0.1682E-02
      2.984  0.3508E-04  0.1766E-03  0.1214E-02
      3.086  0.3579E-03  0.4282E-02  0.2148E-02
      3.189  0.1591E-03  0.9852E-03  0.9114E-03
      3.291  0.8105E-03  0.4395E-02  0.2479E-02
      3.394  0.2010E-03  0.3152E-03  0.6254E-03
      3.496  0.5327E-16  0.4399E-03  0.1464E-02
      3.599  0.5996E-16  0.4917E-07  0.3975E-06
      3.701  0.3390E-03  0.1839E-02  0.7250E-02
      3.804  0.7153E-03  0.2107E-02  0.7793E-02
      3.907  0.6579E-03  0.1067E-02  0.4041E-02
      4.009  0.8320E-03  0.1069E-02  0.1842E-02
      4.112  0.1290E-03  0.5276E-03  0.3832E-03
      4.214  0.6625E-03  0.2981E-02  0.9635E-02
      4.317  0.3963E-05  0.4613E-02  0.4573E-02
      4.419  0.3011E-03  0.4362E-03  0.1433E-02
      4.522  0.1931E-02  0.3453E-02  0.5268E-02
      4.624  0.3361E-04  0.1355E-04  0.2841E-04
      4.727  0.1189E-01  0.2699E-05  0.9373E-03
      4.829  0.5140E-14  0.3994E-05  0.2459E-03
      4.932  0.7919E-17  0.3579E-08  0.1198E-07
      5.034  0.3864E-03  0.3371E-02  0.1246E-01
      5.137  0.2080E-01  0.7375E-02  0.8973E-02
      5.239  0.2881E-03  0.3256E-02  0.5711E-02
      5.342  0.2899E-01  0.8591E-02  0.1534E-01
      5.444  0.7458E-07  0.2932E-04  0.5325E-03
      5.547  0.1672E-02  0.6020E-03  0.3266E-01
      5.649  0.7228E-02  0.1128E-02  0.3129E-01
      5.752  0.2413E-01  0.8357E-02  0.1193E-01
      5.854  0.6328E-01  0.1062E-01  0.1818E+00
      5.957  0.8916E-03  0.2435E-02  0.7150E-01
      6.059  0.1573E-01  0.3192E-02  0.9106E-01
      6.162  0.8926E-01  0.3737E-01  0.2337E+00
      6.264  0.5141E-03  0.1245E-01  0.2217E+00
      6.367  0.6669E-01  0.2602E-01  0.3635E+00
      6.469  0.3963E-01  0.1429E-01  0.4291E+00
      6.572  0.4767E-01  0.3909E-01  0.5671E+00
      6.674  0.1568E-01  0.7846E-01  0.1182E+01
      6.777  0.4784E-02  0.1765E-01  0.6659E+00
      6.879  0.2173E-02  0.1099E-01  0.1458E+00
      6.982  0.1183E-02  0.2108E-02  0.1955E-01
      7.084  0.3209E-02  0.6589E-02  0.1262E+00
      7.187  0.0000E+00  0.0000E+00  0.0000E+00
      7.289  0.0000E+00  0.0000E+00  0.0000E+00
      7.392  0.0000E+00  0.0000E+00  0.0000E+00
      7.494  0.0000E+00  0.0000E+00  0.0000E+00
      7.597  0.0000E+00  0.0000E+00  0.0000E+00
      7.699  0.0000E+00  0.0000E+00  0.0000E+00
      7.802  0.0000E+00  0.0000E+00  0.0000E+00
      7.904  0.0000E+00  0.0000E+00  0.0000E+00
      8.007  0.0000E+00  0.0000E+00  0.0000E+00
      8.109  0.0000E+00  0.0000E+00  0.0000E+00
      8.212  0.0000E+00  0.0000E+00  0.0000E+00
      8.314  0.0000E+00  0.0000E+00  0.0000E+00
      8.417  0.0000E+00  0.0000E+00  0.0000E+00
      8.41681630    -22.33526104  301      0.44690292      1.00000000
    -22.335  0.0000E+00  0.0000E+00  0.0000E+00
    -22.233  0.0000E+00  0.0000E+00  0.0000E+00
    -22.130  0.0000E+00  0.0000E+00  0.0000E+00
    -22.028  0.0000E+00  0.0000E+00  0.0000E+00
    -21.925  0.0000E+00  0.0000E+00  0.0000E+00
    -21.823  0.0000E+00  0.0000E+00  0.0000E+00
    -21.720  0.0000E+00  0.0000E+00  0.0000E+00
    -21.618  0.0000E+00  0.0000E+00  0.0000E+00
    -21.515  0.0000E+00  0.0000E+00  0.0000E+00
    -21.413  0.0000E+00  0.0000E+00  0.0000E+00
    -21.310  0.0000E+00  0.0000E+00  0.0000E+00
    -21.208  0.0000E+00  0.0000E+00  0.0000E+00
    -21.105  0.0000E+00  0.0000E+00  0.0000E+00
    -21.003  0.0000E+00  0.0000E+00  0.0000E+00
    -20.900  0.1732E+02  0.9192E-05  0.1071E-04
    -20.798  0.0000E+00  0.0000E+00  0.0000E+00
    -20.695  0.0000E+00  0.0000E+00  0.0000E+00
    -20.593  0.0000E+00  0.0000E+00  0.0000E+00
    -20.490  0.0000E+00  0.0000E+00  0.0000E+00
    -20.388  0.0000E+00  0.0000E+00  0.0000E+00
    -20.285  0.0000E+00  0.0000E+00  0.0000E+00
    -20.183  0.0000E+00  0.0000E+00  0.0000E+00
    -20.080  0.0000E+00  0.0000E+00  0.0000E+00
    -19.978  0.0000E+00  0.0000E+00  0.0000E+00
    -19.875  0.0000E+00  0.0000E+00  0.0000E+00
    -19.773  0.0000E+00  0.0000E+00  0.0000E+00
    -19.670  0.0000E+00  0.0000E+00  0.0000E+00
    -19.568  0.0000E+00  0.0000E+00  0.0000E+00
    -19.465  0.0000E+00  0.0000E+00  0.0000E+00
    -19.363  0.0000E+00  0.0000E+00  0.0000E+00
    -19.260  0.0000E+00  0.0000E+00  0.0000E+00
    -19.158  0.0000E+00  0.0000E+00  0.0000E+00
    -19.055  0.0000E+00  0.0000E+00  0.0000E+00
    -18.953  0.0000E+00  0.0000E+00  0.0000E+00
    -18.850  0.0000E+00  0.0000E+00  0.0000E+00
    -18.748  0.0000E+00  0.0000E+00  0.0000E+00
    -18.645  0.0000E+00  0.0000E+00  0.0000E+00
    -18.543  0.0000E+00  0.0000E+00  0.0000E+00
    -18.440  0.0000E+00  0.0000E+00  0.0000E+00
    -18.337  0.0000E+00  0.0000E+00  0.0000E+00
    -18.235  0.0000E+00  0.0000E+00  0.0000E+00
    -18.132  0.0000E+00  0.0000E+00  0.0000E+00
    -18.030  0.0000E+00  0.0000E+00  0.0000E+00
    -17.927  0.0000E+00  0.0000E+00  0.0000E+00
    -17.825  0.0000E+00  0.0000E+00  0.0000E+00
    -17.722  0.0000E+00  0.0000E+00  0.0000E+00
    -17.620  0.0000E+00  0.0000E+00  0.0000E+00
    -17.517  0.0000E+00  0.0000E+00  0.0000E+00
    -17.415  0.0000E+00  0.0000E+00  0.0000E+00
    -17.312  0.0000E+00  0.0000E+00  0.0000E+00
    -17.210  0.0000E+00  0.0000E+00  0.0000E+00
    -17.107  0.0000E+00  0.0000E+00  0.0000E+00
    -17.005  0.0000E+00  0.0000E+00  0.0000E+00
    -16.902  0.0000E+00  0.0000E+00  0.0000E+00
    -16.800  0.0000E+00  0.0000E+00  0.0000E+00
    -16.697  0.0000E+00  0.0000E+00  0.0000E+00
    -16.595  0.5510E-15  0.2124E-15  0.1875E-16
    -16.492  0.9961E-04  0.6098E-04  0.1311E-04
    -16.390  0.3281E-04  0.1905E-04  0.2300E-05
    -16.287  0.0000E+00  0.0000E+00  0.0000E+00
    -16.185  0.0000E+00  0.0000E+00  0.0000E+00
    -16.082  0.0000E+00  0.0000E+00  0.0000E+00
    -15.980  0.0000E+00  0.0000E+00  0.0000E+00
    -15.877  0.0000E+00  0.0000E+00  0.0000E+00
    -15.775  0.0000E+00  0.0000E+00  0.0000E+00
    -15.672  0.0000E+00  0.0000E+00  0.0000E+00
    -15.570  0.0000E+00  0.0000E+00  0.0000E+00
    -15.467  0.0000E+00  0.0000E+00  0.0000E+00
    -15.365  0.0000E+00  0.0000E+00  0.0000E+00
    -15.262  0.0000E+00  0.0000E+00  0.0000E+00
    -15.160  0.0000E+00  0.0000E+00  0.0000E+00
    -15.057  0.0000E+00  0.0000E+00  0.0000E+00
    -14.955  0.0000E+00  0.0000E+00  0.0000E+00
    -14.852  0.0000E+00  0.0000E+00  0.0000E+00
    -14.750  0.0000E+00  0.0000E+00  0.0000E+00
    -14.647  0.0000E+00  0.0000E+00  0.0000E+00
    -14.545  0.0000E+00  0.0000E+00  0.0000E+00
    -14.442  0.0000E+00  0.0000E+00  0.0000E+00
    -14.340  0.3660E-03  0.1514E-05  0.1924E-05
    -14.237  0.2642E-02  0.1413E-02  0.4863E-04
    -14.135  0.6135E-03  0.5276E-02  0.1271E-03
    -14.032  0.1293E-03  0.1230E-02  0.1583E-03
    -13.930  0.1432E-02  0.3942E-02  0.5977E-03
    -13.827  0.1516E-02  0.3171E-02  0.3899E-03
    -13.725  0.2927E-03  0.7271E-03  0.5368E-04
    -13.622  0.0000E+00  0.0000E+00  0.0000E+00
    -13.520  0.0000E+00  0.0000E+00  0.0000E+00
    -13.417  0.0000E+00  0.0000E+00  0.0000E+00
    -13.315  0.0000E+00  0.0000E+00  0.0000E+00
    -13.212  0.0000E+00  0.0000E+00  0.0000E+00