CsPbBr3 cubic bulk                      
           1
     8.099864    0.000000    0.000000
     0.000000   12.116722    0.000000
     0.000000    0.000000    8.320320
   Cs   Pb   Br
   4   4  12
Direct configuration=     1
   0.03471508  0.25000000  0.50150298
   0.46528492  0.75000000  0.00150298
   0.53471508  0.25000000  0.99849702
   0.96528492  0.75000000  0.49849702
   0.00000000  0.00000000  0.00000000
   0.50000000  0.00000000  0.50000000
   0.50000000  0.50000000  0.50000000
   0.00000000  0.50000000  0.00000000
   0.50113881  0.75000000  0.45798988
   0.99886119  0.25000000  0.95798988
   0.00113881  0.75000000  0.04201012
   0.49886119  0.25000000  0.54201012
   0.31007556  0.47878124  0.19280255
   0.18992444  0.52121876  0.69280255
   0.81007556  0.02121876  0.30719745
   0.68992444  0.97878124  0.80719745
   0.31007556  0.02121876  0.19280255
   0.18992444  0.97878124  0.69280255
   0.68992444  0.52121876  0.80719745
   0.81007556  0.47878124  0.30719745
