  40  40   1   0
  0.4040437E+02  0.1173535E-08  0.1173535E-08  0.1173535E-08  0.5000000E-15
   1.0000000000000000E-004
  CAR 
 CsPbBr3 cubic bulk                      
      8.16522580    -22.45129362  301      1.04688503      1.00000000
    -22.451  0.0000E+00  0.0000E+00
    -22.349  0.0000E+00  0.0000E+00
    -22.247  0.0000E+00  0.0000E+00
    -22.145  0.0000E+00  0.0000E+00
    -22.043  0.0000E+00  0.0000E+00
    -21.941  0.0000E+00  0.0000E+00
    -21.839  0.0000E+00  0.0000E+00
    -21.737  0.0000E+00  0.0000E+00
    -21.635  0.0000E+00  0.0000E+00
    -21.533  0.0000E+00  0.0000E+00
    -21.431  0.0000E+00  0.0000E+00
    -21.329  0.0000E+00  0.0000E+00
    -21.227  0.0000E+00  0.0000E+00
    -21.125  0.0000E+00  0.0000E+00
    -21.023  0.1568E+03  0.1600E+02
    -20.920  0.0000E+00  0.1600E+02
    -20.818  0.0000E+00  0.1600E+02
    -20.716  0.0000E+00  0.1600E+02
    -20.614  0.0000E+00  0.1600E+02
    -20.512  0.0000E+00  0.1600E+02
    -20.410  0.0000E+00  0.1600E+02
    -20.308  0.0000E+00  0.1600E+02
    -20.206  0.0000E+00  0.1600E+02
    -20.104  0.0000E+00  0.1600E+02
    -20.002  0.0000E+00  0.1600E+02
    -19.900  0.0000E+00  0.1600E+02
    -19.798  0.0000E+00  0.1600E+02
    -19.696  0.0000E+00  0.1600E+02
    -19.594  0.0000E+00  0.1600E+02
    -19.492  0.0000E+00  0.1600E+02
    -19.390  0.0000E+00  0.1600E+02
    -19.288  0.0000E+00  0.1600E+02
    -19.186  0.0000E+00  0.1600E+02
    -19.083  0.0000E+00  0.1600E+02
    -18.981  0.0000E+00  0.1600E+02
    -18.879  0.0000E+00  0.1600E+02
    -18.777  0.0000E+00  0.1600E+02
    -18.675  0.0000E+00  0.1600E+02
    -18.573  0.0000E+00  0.1600E+02
    -18.471  0.0000E+00  0.1600E+02
    -18.369  0.0000E+00  0.1600E+02
    -18.267  0.0000E+00  0.1600E+02
    -18.165  0.0000E+00  0.1600E+02
    -18.063  0.0000E+00  0.1600E+02
    -17.961  0.0000E+00  0.1600E+02
    -17.859  0.0000E+00  0.1600E+02
    -17.757  0.0000E+00  0.1600E+02
    -17.655  0.0000E+00  0.1600E+02
    -17.553  0.0000E+00  0.1600E+02
    -17.451  0.0000E+00  0.1600E+02
    -17.349  0.0000E+00  0.1600E+02
    -17.246  0.0000E+00  0.1600E+02
    -17.144  0.0000E+00  0.1600E+02
    -17.042  0.0000E+00  0.1600E+02
    -16.940  0.0000E+00  0.1600E+02
    -16.838  0.0000E+00  0.1600E+02
    -16.736  0.0000E+00  0.1600E+02
    -16.634  0.0000E+00  0.1600E+02
    -16.532  0.0000E+00  0.1600E+02
    -16.430  0.0000E+00  0.1600E+02
    -16.328  0.9045E-02  0.1600E+02
    -16.226  0.2126E+03  0.3795E+02
    -16.124  0.5633E+02  0.4800E+02
    -16.022  0.4703E+03  0.9600E+02
    -15.920  0.0000E+00  0.9600E+02
    -15.818  0.0000E+00  0.9600E+02
    -15.716  0.0000E+00  0.9600E+02
    -15.614  0.0000E+00  0.9600E+02
    -15.512  0.0000E+00  0.9600E+02
    -15.409  0.0000E+00  0.9600E+02
    -15.307  0.0000E+00  0.9600E+02
    -15.205  0.0000E+00  0.9600E+02
    -15.103  0.0000E+00  0.9600E+02
    -15.001  0.0000E+00  0.9600E+02
    -14.899  0.0000E+00  0.9600E+02
    -14.797  0.0000E+00  0.9600E+02
    -14.695  0.0000E+00  0.9600E+02
    -14.593  0.0000E+00  0.9600E+02
    -14.491  0.0000E+00  0.9600E+02
    -14.389  0.1244E+01  0.9613E+02
    -14.287  0.1470E+02  0.9775E+02
    -14.185  0.4898E+02  0.1027E+03
    -14.083  0.4392E+02  0.1077E+03
    -13.981  0.1037E+03  0.1201E+03
    -13.879  0.2204E+02  0.1237E+03
    -13.777  0.1012E+03  0.1341E+03
    -13.675  0.5879E+02  0.1412E+03
    -13.573  0.2695E+02  0.1440E+03
    -13.470  0.0000E+00  0.1440E+03
    -13.368  0.0000E+00  0.1440E+03
    -13.266  0.0000E+00  0.1440E+03
    -13.164  0.0000E+00  0.1440E+03
    -13.062  0.0000E+00  0.1440E+03
    -12.960  0.0000E+00  0.1440E+03
    -12.858  0.0000E+00  0.1440E+03
    -12.756  0.0000E+00  0.1440E+03
    -12.654  0.0000E+00  0.1440E+03
    -12.552  0.0000E+00  0.1440E+03
    -12.450  0.0000E+00  0.1440E+03
    -12.348  0.0000E+00  0.1440E+03
    -12.246  0.0000E+00  0.1440E+03
    -12.144  0.0000E+00  0.1440E+03
    -12.042  0.0000E+00  0.1440E+03
    -11.940  0.0000E+00  0.1440E+03
    -11.838  0.0000E+00  0.1440E+03
    -11.736  0.0000E+00  0.1440E+03
    -11.633  0.0000E+00  0.1440E+03
    -11.531  0.0000E+00  0.1440E+03
    -11.429  0.0000E+00  0.1440E+03
    -11.327  0.0000E+00  0.1440E+03
    -11.225  0.0000E+00  0.1440E+03
    -11.123  0.0000E+00  0.1440E+03
    -11.021  0.0000E+00  0.1440E+03
    -10.919  0.0000E+00  0.1440E+03
    -10.817  0.0000E+00  0.1440E+03
    -10.715  0.0000E+00  0.1440E+03
    -10.613  0.0000E+00  0.1440E+03
    -10.511  0.0000E+00  0.1440E+03
    -10.409  0.0000E+00  0.1440E+03
    -10.307  0.0000E+00  0.1440E+03
    -10.205  0.0000E+00  0.1440E+03
    -10.103  0.0000E+00  0.1440E+03
    -10.001  0.0000E+00  0.1440E+03
     -9.899  0.0000E+00  0.1440E+03
     -9.796  0.0000E+00  0.1440E+03
     -9.694  0.0000E+00  0.1440E+03
     -9.592  0.0000E+00  0.1440E+03
     -9.490  0.0000E+00  0.1440E+03
     -9.388  0.0000E+00  0.1440E+03
     -9.286  0.0000E+00  0.1440E+03
     -9.184  0.0000E+00  0.1440E+03
     -9.082  0.0000E+00  0.1440E+03
     -8.980  0.0000E+00  0.1440E+03
     -8.878  0.0000E+00  0.1440E+03
     -8.776  0.0000E+00  0.1440E+03
     -8.674  0.0000E+00  0.1440E+03
     -8.572  0.0000E+00  0.1440E+03
     -8.470  0.0000E+00  0.1440E+03
     -8.368  0.0000E+00  0.1440E+03
     -8.266  0.2156E+00  0.1440E+03
     -8.164  0.0000E+00  0.1442E+03
     -8.062  0.0000E+00  0.1442E+03
     -7.959  0.1459E+02  0.1457E+03
     -7.857  0.0000E+00  0.1458E+03
     -7.755  0.1696E-06  0.1458E+03
     -7.653  0.3237E+02  0.1491E+03
     -7.551  0.2450E+01  0.1495E+03
     -7.449  0.1118E+02  0.1506E+03
     -7.347  0.3803E+03  0.2011E+03
     -7.245  0.0000E+00  0.2025E+03
     -7.143  0.0000E+00  0.2025E+03
     -7.041  0.2893E+02  0.2055E+03
     -6.939  0.7349E+01  0.2062E+03
     -6.837  0.0000E+00  0.2062E+03
     -6.735  0.1108E-09  0.2063E+03
     -6.633  0.1470E+02  0.2077E+03
     -6.531  0.0000E+00  0.2078E+03
     -6.429  0.0000E+00  0.2078E+03
     -6.327  0.0000E+00  0.2078E+03
     -6.225  0.3817E+00  0.2078E+03
     -6.122  0.0000E+00  0.2080E+03
     -6.020  0.0000E+00  0.2080E+03
     -5.918  0.0000E+00  0.2080E+03
     -5.816  0.0000E+00  0.2080E+03
     -5.714  0.0000E+00  0.2080E+03
     -5.612  0.0000E+00  0.2080E+03
     -5.510  0.0000E+00  0.2080E+03
     -5.408  0.0000E+00  0.2080E+03
     -5.306  0.0000E+00  0.2080E+03
     -5.204  0.0000E+00  0.2080E+03
     -5.102  0.0000E+00  0.2080E+03
     -5.000  0.0000E+00  0.2080E+03
     -4.898  0.0000E+00  0.2080E+03
     -4.796  0.0000E+00  0.2080E+03
     -4.694  0.0000E+00  0.2080E+03
     -4.592  0.0000E+00  0.2080E+03
     -4.490  0.0000E+00  0.2080E+03
     -4.388  0.0000E+00  0.2080E+03
     -4.285  0.0000E+00  0.2080E+03
     -4.183  0.0000E+00  0.2080E+03
     -4.081  0.0000E+00  0.2080E+03
     -3.979  0.0000E+00  0.2080E+03
     -3.877  0.0000E+00  0.2080E+03
     -3.775  0.0000E+00  0.2080E+03
     -3.673  0.0000E+00  0.2080E+03
     -3.571  0.0000E+00  0.2080E+03
     -3.469  0.1420E-04  0.2080E+03
     -3.367  0.1820E+02  0.2099E+03
     -3.265  0.4866E+02  0.2172E+03
     -3.163  0.2228E+02  0.2195E+03
     -3.061  0.0000E+00  0.2200E+03
     -2.959  0.0000E+00  0.2200E+03
     -2.857  0.0000E+00  0.2200E+03
     -2.755  0.0000E+00  0.2200E+03
     -2.653  0.4832E+01  0.2205E+03
     -2.551  0.3899E+02  0.2270E+03
     -2.449  0.4281E+02  0.2314E+03
     -2.346  0.2939E+02  0.2345E+03
     -2.244  0.4753E+02  0.2394E+03
     -2.142  0.2376E+02  0.2444E+03
     -2.040  0.1110E+02  0.2459E+03
     -1.938  0.5447E+02  0.2528E+03
     -1.836  0.1885E+02  0.2549E+03
     -1.734  0.2940E+02  0.2598E+03
     -1.632  0.1668E+02  0.2615E+03
     -1.530  0.9690E+02  0.2736E+03
     -1.428  0.2536E+02  0.2768E+03
     -1.326  0.1030E+03  0.2883E+03
     -1.224  0.1386E+03  0.3054E+03
     -1.122  0.5666E+02  0.3113E+03
     -1.020  0.9845E+02  0.3248E+03
     -0.918  0.6792E+02  0.3357E+03
     -0.816  0.1960E+02  0.3398E+03
     -0.714  0.2940E+02  0.3427E+03
     -0.612  0.0000E+00  0.3428E+03
     -0.509  0.7091E+00  0.3428E+03
     -0.407  0.2447E+01  0.3435E+03
     -0.305  0.1951E+02  0.3455E+03
     -0.203  0.1045E+02  0.3466E+03
     -0.101  0.9799E+01  0.3495E+03
      0.001  0.0000E+00  0.3495E+03
      0.103  0.0000E+00  0.3495E+03
      0.205  0.5932E-04  0.3495E+03
      0.307  0.7349E+01  0.3502E+03
      0.409  0.9330E+01  0.3512E+03
      0.511  0.0000E+00  0.3518E+03
      0.613  0.0000E+00  0.3518E+03
      0.715  0.0000E+00  0.3518E+03
      0.817  0.0000E+00  0.3518E+03
      0.919  0.1695E-07  0.3518E+03
      1.021  0.2450E+01  0.3520E+03
      1.123  0.0000E+00  0.3520E+03
      1.225  0.0000E+00  0.3520E+03
      1.328  0.0000E+00  0.3520E+03
      1.430  0.0000E+00  0.3520E+03
      1.532  0.0000E+00  0.3520E+03
      1.634  0.0000E+00  0.3520E+03
      1.736  0.0000E+00  0.3520E+03
      1.838  0.0000E+00  0.3520E+03
      1.940  0.0000E+00  0.3520E+03
      2.042  0.0000E+00  0.3520E+03
      2.144  0.0000E+00  0.3520E+03
      2.246  0.0000E+00  0.3520E+03
      2.348  0.0000E+00  0.3520E+03
      2.450  0.0000E+00  0.3520E+03
      2.552  0.0000E+00  0.3520E+03
      2.654  0.0000E+00  0.3520E+03
      2.756  0.0000E+00  0.3520E+03
      2.858  0.7349E+01  0.3527E+03
      2.960  0.0000E+00  0.3528E+03
      3.062  0.3232E-02  0.3528E+03
      3.165  0.2939E+02  0.3558E+03
      3.267  0.0000E+00  0.3558E+03
      3.369  0.4330E+02  0.3602E+03
      3.471  0.0000E+00  0.3602E+03
      3.573  0.1553E+02  0.3618E+03
      3.675  0.0000E+00  0.3632E+03
      3.777  0.3472E-02  0.3633E+03
      3.879  0.7346E+01  0.3640E+03
      3.981  0.0000E+00  0.3640E+03
      4.083  0.0000E+00  0.3640E+03
      4.185  0.0000E+00  0.3640E+03
      4.287  0.0000E+00  0.3640E+03
      4.389  0.0000E+00  0.3640E+03
      4.491  0.0000E+00  0.3640E+03
      4.593  0.1224E+02  0.3652E+03
      4.695  0.4900E+01  0.3658E+03
      4.797  0.2940E+02  0.3688E+03
      4.899  0.2957E+02  0.3718E+03
      5.002  0.1960E+02  0.3758E+03
      5.104  0.4741E+02  0.3806E+03
      5.206  0.4810E+02  0.3862E+03
      5.308  0.1960E+02  0.3882E+03
      5.410  0.0000E+00  0.3882E+03
      5.512  0.6140E-04  0.3883E+03
      5.614  0.1708E+02  0.3900E+03
      5.716  0.0000E+00  0.3902E+03
      5.818  0.2940E+02  0.3932E+03
      5.920  0.4300E-01  0.3933E+03
      6.022  0.1418E+02  0.3957E+03
      6.124  0.3623E+02  0.3994E+03
      6.226  0.5426E+01  0.4003E+03
      6.328  0.2938E+02  0.4050E+03
      6.430  0.7235E+02  0.4124E+03
      6.532  0.4918E+02  0.4195E+03
      6.634  0.6102E+02  0.4270E+03
      6.736  0.2829E+02  0.4314E+03
      6.839  0.2450E+01  0.4320E+03
      6.941  0.0000E+00  0.4320E+03
      7.043  0.0000E+00  0.4320E+03
      7.145  0.0000E+00  0.4320E+03
      7.247  0.0000E+00  0.4320E+03
      7.349  0.0000E+00  0.4320E+03
      7.451  0.0000E+00  0.4320E+03
      7.553  0.0000E+00  0.4320E+03
      7.655  0.0000E+00  0.4320E+03
      7.757  0.0000E+00  0.4320E+03
      7.859  0.0000E+00  0.4320E+03
      7.961  0.0000E+00  0.4320E+03
      8.063  0.0000E+00  0.4320E+03
      8.165  0.0000E+00  0.4320E+03
      8.16522580    -22.45129362  301      1.04688503      1.00000000
    -22.451  0.0000E+00  0.0000E+00  0.0000E+00
    -22.349  0.0000E+00  0.0000E+00  0.0000E+00
    -22.247  0.0000E+00  0.0000E+00  0.0000E+00
    -22.145  0.0000E+00  0.0000E+00  0.0000E+00
    -22.043  0.0000E+00  0.0000E+00  0.0000E+00
    -21.941  0.0000E+00  0.0000E+00  0.0000E+00
    -21.839  0.0000E+00  0.0000E+00  0.0000E+00
    -21.737  0.0000E+00  0.0000E+00  0.0000E+00
    -21.635  0.0000E+00  0.0000E+00  0.0000E+00
    -21.533  0.0000E+00  0.0000E+00  0.0000E+00
    -21.431  0.0000E+00  0.0000E+00  0.0000E+00
    -21.329  0.0000E+00  0.0000E+00  0.0000E+00
    -21.227  0.0000E+00  0.0000E+00  0.0000E+00
    -21.125  0.0000E+00  0.0000E+00  0.0000E+00
    -21.023  0.1739E+02  0.7787E-07  0.2732E-05
    -20.920  0.0000E+00  0.0000E+00  0.0000E+00
    -20.818  0.0000E+00  0.0000E+00  0.0000E+00
    -20.716  0.0000E+00  0.0000E+00  0.0000E+00
    -20.614  0.0000E+00  0.0000E+00  0.0000E+00
    -20.512  0.0000E+00  0.0000E+00  0.0000E+00
    -20.410  0.0000E+00  0.0000E+00  0.0000E+00
    -20.308  0.0000E+00  0.0000E+00  0.0000E+00
    -20.206  0.0000E+00  0.0000E+00  0.0000E+00
    -20.104  0.0000E+00  0.0000E+00  0.0000E+00
    -20.002  0.0000E+00  0.0000E+00  0.0000E+00
    -19.900  0.0000E+00  0.0000E+00  0.0000E+00
    -19.798  0.0000E+00  0.0000E+00  0.0000E+00
    -19.696  0.0000E+00  0.0000E+00  0.0000E+00
    -19.594  0.0000E+00  0.0000E+00  0.0000E+00
    -19.492  0.0000E+00  0.0000E+00  0.0000E+00
    -19.390  0.0000E+00  0.0000E+00  0.0000E+00
    -19.288  0.0000E+00  0.0000E+00  0.0000E+00
    -19.186  0.0000E+00  0.0000E+00  0.0000E+00
    -19.083  0.0000E+00  0.0000E+00  0.0000E+00
    -18.981  0.0000E+00  0.0000E+00  0.0000E+00
    -18.879  0.0000E+00  0.0000E+00  0.0000E+00
    -18.777  0.0000E+00  0.0000E+00  0.0000E+00
    -18.675  0.0000E+00  0.0000E+00  0.0000E+00
    -18.573  0.0000E+00  0.0000E+00  0.0000E+00
    -18.471  0.0000E+00  0.0000E+00  0.0000E+00
    -18.369  0.0000E+00  0.0000E+00  0.0000E+00
    -18.267  0.0000E+00  0.0000E+00  0.0000E+00
    -18.165  0.0000E+00  0.0000E+00  0.0000E+00
    -18.063  0.0000E+00  0.0000E+00  0.0000E+00
    -17.961  0.0000E+00  0.0000E+00  0.0000E+00
    -17.859  0.0000E+00  0.0000E+00  0.0000E+00
    -17.757  0.0000E+00  0.0000E+00  0.0000E+00
    -17.655  0.0000E+00  0.0000E+00  0.0000E+00
    -17.553  0.0000E+00  0.0000E+00  0.0000E+00
    -17.451  0.0000E+00  0.0000E+00  0.0000E+00
    -17.349  0.0000E+00  0.0000E+00  0.0000E+00
    -17.246  0.0000E+00  0.0000E+00  0.0000E+00
    -17.144  0.0000E+00  0.0000E+00  0.0000E+00
    -17.042  0.0000E+00  0.0000E+00  0.0000E+00
    -16.940  0.0000E+00  0.0000E+00  0.0000E+00
    -16.838  0.0000E+00  0.0000E+00  0.0000E+00
    -16.736  0.0000E+00  0.0000E+00  0.0000E+00
    -16.634  0.0000E+00  0.0000E+00  0.0000E+00
    -16.532  0.0000E+00  0.0000E+00  0.0000E+00
    -16.430  0.0000E+00  0.0000E+00  0.0000E+00
    -16.328  0.3874E-09  0.3169E-09  0.3497E-09
    -16.226  0.1714E-04  0.2882E-04  0.9074E-05
    -16.124  0.8839E-13  0.8066E-05  0.7980E-06
    -16.022  0.2726E-04  0.2092E-04  0.2108E-05
    -15.920  0.0000E+00  0.0000E+00  0.0000E+00
    -15.818  0.0000E+00  0.0000E+00  0.0000E+00
    -15.716  0.0000E+00  0.0000E+00  0.0000E+00
    -15.614  0.0000E+00  0.0000E+00  0.0000E+00
    -15.512  0.0000E+00  0.0000E+00  0.0000E+00
    -15.409  0.0000E+00  0.0000E+00  0.0000E+00
    -15.307  0.0000E+00  0.0000E+00  0.0000E+00
    -15.205  0.0000E+00  0.0000E+00  0.0000E+00
    -15.103  0.0000E+00  0.0000E+00  0.0000E+00
    -15.001  0.0000E+00  0.0000E+00  0.0000E+00
    -14.899  0.0000E+00  0.0000E+00  0.0000E+00
    -14.797  0.0000E+00  0.0000E+00  0.0000E+00
    -14.695  0.0000E+00  0.0000E+00  0.0000E+00
    -14.593  0.0000E+00  0.0000E+00  0.0000E+00
    -14.491  0.0000E+00  0.0000E+00  0.0000E+00
    -14.389  0.1194E-03  0.3684E-19  0.1632E-06
    -14.287  0.9675E-03  0.2638E-03  0.2657E-05
    -14.185  0.1720E-02  0.1659E-02  0.3121E-04
    -14.083  0.3566E-15  0.2740E-02  0.5704E-04
    -13.981  0.7575E-03  0.1814E-02  0.1183E-03
    -13.879  0.1124E-16  0.3814E-17  0.1396E-03
    -13.777  0.1680E-03  0.1645E-02  0.2172E-03
    -13.675  0.1407E-03  0.3612E-03  0.6062E-04
    -13.573  0.5643E-04  0.1163E-03  0.2385E-04
    -13.470  0.0000E+00  0.0000E+00  0.0000E+00
    -13.368  0.0000E+00  0.0000E+00  0.0000E+00
    -13.266  0.0000E+00  0.0000E+00  0.0000E+00
    -13.164  0.0000E+00  0.0000E+00  0.0000E+00
    -13.062  0.0000E+00  0.0000E+00  0.0000E+00
    -12.960  0.0000E+00  0.0000E+00  0.0000E+00
    -12.858  0.0000E+00  0.0000E+00  0.0000E+00
    -12.756  0.0000E+00  0.0000E+00  0.0000E+00
    -12.654  0.0000E+00  0.0000E+00  0.0000E+00
    -12.552  0.0000E+00  0.0000E+00  0.0000E+00
    -12.450  0.0000E+00  0.0000E+00  0.0000E+00
    -12.348  0.0000E+00  0.0000E+00  0.0000E+00
    -12.246  0.0000E+00  0.0000E+00  0.0000E+00
    -12.144  0.0000E+00  0.0000E+00  0.0000E+00
    -12.042  0.0000E+00  0.0000E+00  0.0000E+00
    -11.940  0.0000E+00  0.0000E+00  0.0000E+00
    -11.838  0.0000E+00  0.0000E+00  0.0000E+00
    -11.736  0.0000E+00  0.0000E+00  0.0000E+00
    -11.633  0.0000E+00  0.0000E+00  0.0000E+00
    -11.531  0.0000E+00  0.0000E+00  0.0000E+00
    -11.429  0.0000E+00  0.0000E+00  0.0000E+00
    -11.327  0.0000E+00  0.0000E+00  0.0000E+00
    -11.225  0.0000E+00  0.0000E+00  0.0000E+00
    -11.123  0.0000E+00  0.0000E+00  0.0000E+00
    -11.021  0.0000E+00  0.0000E+00  0.0000E+00
    -10.919  0.0000E+00  0.0000E+00  0.0000E+00
    -10.817  0.0000E+00  0.0000E+00  0.0000E+00
    -10.715  0.0000E+00  0.0000E+00  0.0000E+00
    -10.613  0.0000E+00  0.0000E+00  0.0000E+00
    -10.511  0.0000E+00  0.0000E+00  0.0000E+00
    -10.409  0.0000E+00  0.0000E+00  0.0000E+00
    -10.307  0.0000E+00  0.0000E+00  0.0000E+00
    -10.205  0.0000E+00  0.0000E+00  0.0000E+00
    -10.103  0.0000E+00  0.0000E+00  0.0000E+00
    -10.001  0.0000E+00  0.0000E+00  0.0000E+00
     -9.899  0.0000E+00  0.0000E+00  0.0000E+00
     -9.796  0.0000E+00  0.0000E+00  0.0000E+00
     -9.694  0.0000E+00  0.0000E+00  0.0000E+00
     -9.592  0.0000E+00  0.0000E+00  0.0000E+00
     -9.490  0.0000E+00  0.0000E+00  0.0000E+00
     -9.388  0.0000E+00  0.0000E+00  0.0000E+00
     -9.286  0.0000E+00  0.0000E+00  0.0000E+00
     -9.184  0.0000E+00  0.0000E+00  0.0000E+00
     -9.082  0.0000E+00  0.0000E+00  0.0000E+00
     -8.980  0.0000E+00  0.0000E+00  0.0000E+00
     -8.878  0.0000E+00  0.0000E+00  0.0000E+00
     -8.776  0.0000E+00  0.0000E+00  0.0000E+00
     -8.674  0.0000E+00  0.0000E+00  0.0000E+00
     -8.572  0.0000E+00  0.0000E+00  0.0000E+00
     -8.470  0.0000E+00  0.0000E+00  0.0000E+00
     -8.368  0.0000E+00  0.0000E+00  0.0000E+00
     -8.266  0.8800E-20  0.8563E-20  0.3942E-19
     -8.164  0.0000E+00  0.0000E+00  0.0000E+00
     -8.062  0.0000E+00  0.0000E+00  0.0000E+00
     -7.959  0.9496E-19  0.3018E-17  0.1314E-05
     -7.857  0.0000E+00  0.0000E+00  0.0000E+00
     -7.755  0.6789E-27  0.3933E-10  0.1134E-12
     -7.653  0.2622E-18  0.1566E-01  0.1583E-04
     -7.551  0.1018E-17  0.6902E-17  0.1873E-05
     -7.449  0.1605E-05  0.8127E+00  0.2157E-05
     -7.347  0.2366E-04  0.3461E+02  0.4897E-04
     -7.245  0.0000E+00  0.0000E+00  0.0000E+00
     -7.143  0.0000E+00  0.0000E+00  0.0000E+00
     -7.041  0.2990E-04  0.1102E-01  0.3301E-04
     -6.939  0.1028E-17  0.3582E-02  0.7672E-17
     -6.837  0.0000E+00  0.0000E+00  0.0000E+00
     -6.735  0.1917E-15  0.1777E-14  0.1882E-16
     -6.633  0.2257E-04  0.3355E-02  0.1616E-05
     -6.531  0.0000E+00  0.0000E+00  0.0000E+00
     -6.429  0.0000E+00  0.0000E+00  0.0000E+00
     -6.327  0.0000E+00  0.0000E+00  0.0000E+00
     -6.225  0.7866E-06  0.2667E-18  0.1281E-06
     -6.122  0.0000E+00  0.0000E+00  0.0000E+00
     -6.020  0.0000E+00  0.0000E+00  0.0000E+00
     -5.918  0.0000E+00  0.0000E+00  0.0000E+00
     -5.816  0.0000E+00  0.0000E+00  0.0000E+00
     -5.714  0.0000E+00  0.0000E+00  0.0000E+00
     -5.612  0.0000E+00  0.0000E+00  0.0000E+00
     -5.510  0.0000E+00  0.0000E+00  0.0000E+00
     -5.408  0.0000E+00  0.0000E+00  0.0000E+00
     -5.306  0.0000E+00  0.0000E+00  0.0000E+00
     -5.204  0.0000E+00  0.0000E+00  0.0000E+00
     -5.102  0.0000E+00  0.0000E+00  0.0000E+00
     -5.000  0.0000E+00  0.0000E+00  0.0000E+00
     -4.898  0.0000E+00  0.0000E+00  0.0000E+00
     -4.796  0.0000E+00  0.0000E+00  0.0000E+00
     -4.694  0.0000E+00  0.0000E+00  0.0000E+00
     -4.592  0.0000E+00  0.0000E+00  0.0000E+00
     -4.490  0.0000E+00  0.0000E+00  0.0000E+00
     -4.388  0.0000E+00  0.0000E+00  0.0000E+00
     -4.285  0.0000E+00  0.0000E+00  0.0000E+00
     -4.183  0.0000E+00  0.0000E+00  0.0000E+00
     -4.081  0.0000E+00  0.0000E+00  0.0000E+00
     -3.979  0.0000E+00  0.0000E+00  0.0000E+00
     -3.877  0.0000E+00  0.0000E+00  0.0000E+00
     -3.775  0.0000E+00  0.0000E+00  0.0000E+00
     -3.673  0.0000E+00  0.0000E+00  0.0000E+00
     -3.571  0.0000E+00  0.0000E+00  0.0000E+00
     -3.469  0.3509E-25  0.1242E-07  0.1322E-22
     -3.367  0.7053E-18  0.1138E-01  0.1798E-03
     -3.265  0.1444E-15  0.5932E-02  0.1472E-02
     -3.163  0.6742E-18  0.5260E-17  0.5286E-03
     -3.061  0.0000E+00  0.0000E+00  0.0000E+00
     -2.959  0.0000E+00  0.0000E+00  0.0000E+00
     -2.857  0.0000E+00  0.0000E+00  0.0000E+00
     -2.755  0.0000E+00  0.0000E+00  0.0000E+00
     -2.653  0.1420E-04  0.2993E-02  0.2278E-04
     -2.551  0.3840E-04  0.1719E-01  0.5608E-03
     -2.449  0.6117E-03  0.1218E-01  0.1267E-02
     -2.346  0.1144E-16  0.4617E-02  0.1885E-02
     -2.244  0.4609E-02  0.1116E-01  0.1782E-02
     -2.142  0.6196E-02  0.6063E-03  0.2608E-02
     -2.040  0.8944E-03  0.1322E-01  0.6894E-03
     -1.938  0.1988E-01  0.4106E-01  0.2640E-02
     -1.836  0.3105E-02  0.3011E-01  0.9280E-03
     -1.734  0.4214E-03  0.4990E-01  0.2699E-02
     -1.632  0.2104E-03  0.2083E-01  0.2135E-02
     -1.530  0.3017E-02  0.9827E-01  0.1017E-01
     -1.428  0.2698E-14  0.3363E-02  0.5407E-02
     -1.326  0.3410E-03  0.1942E-01  0.1729E-01
     -1.224  0.2051E-03  0.6729E-01  0.1355E-01
     -1.122  0.2245E-02  0.2918E-01  0.2785E-02
     -1.020  0.1085E-02  0.2119E-01  0.1150E-01
     -0.918  0.7971E-03  0.7411E-02  0.4667E-02
     -0.816  0.1097E-03  0.2751E-02  0.8745E-03
     -0.714  0.1504E-03  0.2149E-02  0.1414E-02
     -0.612  0.0000E+00  0.0000E+00  0.0000E+00
     -0.509  0.4022E-16  0.5942E-04  0.8689E-16
     -0.407  0.6723E-15  0.1558E-04  0.2058E-14
     -0.305  0.2475E-14  0.1630E-02  0.1373E-03
     -0.203  0.2701E-16  0.2289E-03  0.2402E-03
     -0.101  0.3415E-18  0.3507E-03  0.1123E-03
      0.001  0.0000E+00  0.0000E+00  0.0000E+00
      0.103  0.0000E+00  0.0000E+00  0.0000E+00
      0.205  0.2486E-19  0.3598E-21  0.3656E-08
      0.307  0.3021E-14  0.2897E-16  0.4779E-03
      0.409  0.5728E-17  0.4131E-16  0.1331E-03
      0.511  0.0000E+00  0.0000E+00  0.0000E+00
      0.613  0.0000E+00  0.0000E+00  0.0000E+00
      0.715  0.0000E+00  0.0000E+00  0.0000E+00
      0.817  0.0000E+00  0.0000E+00  0.0000E+00
      0.919  0.2228E-23  0.2972E-25  0.6554E-23
      1.021  0.3220E-15  0.4295E-17  0.9473E-15
      1.123  0.0000E+00  0.0000E+00  0.0000E+00
      1.225  0.0000E+00  0.0000E+00  0.0000E+00
      1.328  0.0000E+00  0.0000E+00  0.0000E+00
      1.430  0.0000E+00  0.0000E+00  0.0000E+00
      1.532  0.0000E+00  0.0000E+00  0.0000E+00
      1.634  0.0000E+00  0.0000E+00  0.0000E+00
      1.736  0.0000E+00  0.0000E+00  0.0000E+00
      1.838  0.0000E+00  0.0000E+00  0.0000E+00
      1.940  0.0000E+00  0.0000E+00  0.0000E+00
      2.042  0.0000E+00  0.0000E+00  0.0000E+00
      2.144  0.0000E+00  0.0000E+00  0.0000E+00
      2.246  0.0000E+00  0.0000E+00  0.0000E+00
      2.348  0.0000E+00  0.0000E+00  0.0000E+00
      2.450  0.0000E+00  0.0000E+00  0.0000E+00
      2.552  0.0000E+00  0.0000E+00  0.0000E+00
      2.654  0.0000E+00  0.0000E+00  0.0000E+00
      2.756  0.0000E+00  0.0000E+00  0.0000E+00
      2.858  0.8596E-14  0.1604E-15  0.2608E-02
      2.960  0.0000E+00  0.0000E+00  0.0000E+00
      3.062  0.2356E-19  0.2521E-07  0.5483E-06
      3.165  0.3961E-15  0.2187E-03  0.4727E-02
      3.267  0.0000E+00  0.0000E+00  0.0000E+00
      3.369  0.3570E-03  0.9664E-03  0.3067E-02
      3.471  0.0000E+00  0.0000E+00  0.0000E+00
      3.573  0.3225E-03  0.4013E-03  0.2960E-03
      3.675  0.0000E+00  0.0000E+00  0.0000E+00
      3.777  0.1109E-06  0.4442E-20  0.1513E-06
      3.879  0.2770E-03  0.1134E-16  0.3920E-03
      3.981  0.0000E+00  0.0000E+00  0.0000E+00
      4.083  0.0000E+00  0.0000E+00  0.0000E+00
      4.185  0.0000E+00  0.0000E+00  0.0000E+00
      4.287  0.0000E+00  0.0000E+00  0.0000E+00
      4.389  0.0000E+00  0.0000E+00  0.0000E+00
      4.491  0.0000E+00  0.0000E+00  0.0000E+00
      4.593  0.1449E-01  0.2225E-13  0.1097E-01
      4.695  0.2548E-15  0.9654E-08  0.6279E-02
      4.797  0.1119E-14  0.8890E-03  0.9441E-02
      4.899  0.9827E-05  0.6569E-02  0.2963E-01
      5.002  0.1369E-02  0.1762E-02  0.1099E-01
      5.104  0.7540E-02  0.1591E-01  0.1575E-01
      5.206  0.7207E-01  0.2691E-01  0.3554E-02
      5.308  0.5926E-02  0.5577E-02  0.2847E-02
      5.410  0.0000E+00  0.0000E+00  0.0000E+00
      5.512  0.1705E-07  0.7215E-08  0.4080E-06
      5.614  0.8338E-02  0.2756E-02  0.4032E-01
      5.716  0.0000E+00  0.0000E+00  0.0000E+00
      5.818  0.1089E+00  0.2758E-01  0.6637E-01
      5.920  0.3080E-06  0.3884E-04  0.5764E-03
      6.022  0.2386E-01  0.5754E-02  0.1693E+00
      6.124  0.1058E+00  0.7602E-02  0.2827E+00
      6.226  0.2191E-02  0.9494E-03  0.7814E-01
      6.328  0.9197E-03  0.5415E-02  0.1634E+00
      6.430  0.6688E-01  0.1544E-01  0.5781E+00
      6.532  0.1468E+00  0.2859E-01  0.3798E+00
      6.634  0.6497E-03  0.2723E-01  0.7187E+00
      6.736  0.3711E-01  0.5837E-01  0.3490E+00
      6.839  0.6610E-03  0.1791E-06  0.5652E-01
      6.941  0.0000E+00  0.0000E+00  0.0000E+00
      7.043  0.0000E+00  0.0000E+00  0.0000E+00
      7.145  0.0000E+00  0.0000E+00  0.0000E+00
      7.247  0.0000E+00  0.0000E+00  0.0000E+00
      7.349  0.0000E+00  0.0000E+00  0.0000E+00
      7.451  0.0000E+00  0.0000E+00  0.0000E+00
      7.553  0.0000E+00  0.0000E+00  0.0000E+00
      7.655  0.0000E+00  0.0000E+00  0.0000E+00
      7.757  0.0000E+00  0.0000E+00  0.0000E+00
      7.859  0.0000E+00  0.0000E+00  0.0000E+00
      7.961  0.0000E+00  0.0000E+00  0.0000E+00
      8.063  0.0000E+00  0.0000E+00  0.0000E+00
      8.165  0.0000E+00  0.0000E+00  0.0000E+00
      8.16522580    -22.45129362  301      1.04688503      1.00000000
    -22.451  0.0000E+00  0.0000E+00  0.0000E+00
    -22.349  0.0000E+00  0.0000E+00  0.0000E+00
    -22.247  0.0000E+00  0.0000E+00  0.0000E+00
    -22.145  0.0000E+00  0.0000E+00  0.0000E+00
    -22.043  0.0000E+00  0.0000E+00  0.0000E+00
    -21.941  0.0000E+00  0.0000E+00  0.0000E+00
    -21.839  0.0000E+00  0.0000E+00  0.0000E+00
    -21.737  0.0000E+00  0.0000E+00  0.0000E+00
    -21.635  0.0000E+00  0.0000E+00  0.0000E+00
    -21.533  0.0000E+00  0.0000E+00  0.0000E+00
    -21.431  0.0000E+00  0.0000E+00  0.0000E+00
    -21.329  0.0000E+00  0.0000E+00  0.0000E+00
    -21.227  0.0000E+00  0.0000E+00  0.0000E+00
    -21.125  0.0000E+00  0.0000E+00  0.0000E+00
    -21.023  0.1739E+02  0.7787E-07  0.2732E-05
    -20.920  0.0000E+00  0.0000E+00  0.0000E+00
    -20.818  0.0000E+00  0.0000E+00  0.0000E+00
    -20.716  0.0000E+00  0.0000E+00  0.0000E+00
    -20.614  0.0000E+00  0.0000E+00  0.0000E+00
    -20.512  0.0000E+00  0.0000E+00  0.0000E+00
    -20.410  0.0000E+00  0.0000E+00  0.0000E+00
    -20.308  0.0000E+00  0.0000E+00  0.0000E+00
    -20.206  0.0000E+00  0.0000E+00  0.0000E+00
    -20.104  0.0000E+00  0.0000E+00  0.0000E+00
    -20.002  0.0000E+00  0.0000E+00  0.0000E+00
    -19.900  0.0000E+00  0.0000E+00  0.0000E+00
    -19.798  0.0000E+00  0.0000E+00  0.0000E+00
    -19.696  0.0000E+00  0.0000E+00  0.0000E+00
    -19.594  0.0000E+00  0.0000E+00  0.0000E+00
    -19.492  0.0000E+00  0.0000E+00  0.0000E+00
    -19.390  0.0000E+00  0.0000E+00  0.0000E+00
    -19.288  0.0000E+00  0.0000E+00  0.0000E+00
    -19.186  0.0000E+00  0.0000E+00  0.0000E+00
    -19.083  0.0000E+00  0.0000E+00  0.0000E+00
    -18.981  0.0000E+00  0.0000E+00  0.0000E+00
    -18.879  0.0000E+00  0.0000E+00  0.0000E+00
    -18.777  0.0000E+00  0.0000E+00  0.0000E+00
    -18.675  0.0000E+00  0.0000E+00  0.0000E+00
    -18.573  0.0000E+00  0.0000E+00  0.0000E+00
    -18.471  0.0000E+00  0.0000E+00  0.0000E+00
    -18.369  0.0000E+00  0.0000E+00  0.0000E+00
    -18.267  0.0000E+00  0.0000E+00  0.0000E+00
    -18.165  0.0000E+00  0.0000E+00  0.0000E+00
    -18.063  0.0000E+00  0.0000E+00  0.0000E+00
    -17.961  0.0000E+00  0.0000E+00  0.0000E+00
    -17.859  0.0000E+00  0.0000E+00  0.0000E+00
    -17.757  0.0000E+00  0.0000E+00  0.0000E+00
    -17.655  0.0000E+00  0.0000E+00  0.0000E+00
    -17.553  0.0000E+00  0.0000E+00  0.0000E+00
    -17.451  0.0000E+00  0.0000E+00  0.0000E+00
    -17.349  0.0000E+00  0.0000E+00  0.0000E+00
    -17.246  0.0000E+00  0.0000E+00  0.0000E+00
    -17.144  0.0000E+00  0.0000E+00  0.0000E+00
    -17.042  0.0000E+00  0.0000E+00  0.0000E+00
    -16.940  0.0000E+00  0.0000E+00  0.0000E+00
    -16.838  0.0000E+00  0.0000E+00  0.0000E+00
    -16.736  0.0000E+00  0.0000E+00  0.0000E+00
    -16.634  0.0000E+00  0.0000E+00  0.0000E+00
    -16.532  0.0000E+00  0.0000E+00  0.0000E+00
    -16.430  0.0000E+00  0.0000E+00  0.0000E+00
    -16.328  0.3874E-09  0.3169E-09  0.3497E-09
    -16.226  0.1714E-04  0.2882E-04  0.9074E-05
    -16.124  0.8837E-13  0.8066E-05  0.7980E-06
    -16.022  0.2726E-04  0.2092E-04  0.2108E-05
    -15.920  0.0000E+00  0.0000E+00  0.0000E+00
    -15.818  0.0000E+00  0.0000E+00  0.0000E+00
    -15.716  0.0000E+00  0.0000E+00  0.0000E+00
    -15.614  0.0000E+00  0.0000E+00  0.0000E+00
    -15.512  0.0000E+00  0.0000E+00  0.0000E+00
    -15.409  0.0000E+00  0.0000E+00  0.0000E+00
    -15.307  0.0000E+00  0.0000E+00  0.0000E+00
    -15.205  0.0000E+00  0.0000E+00  0.0000E+00
    -15.103  0.0000E+00  0.0000E+00  0.0000E+00
    -15.001  0.0000E+00  0.0000E+00  0.0000E+00
    -14.899  0.0000E+00  0.0000E+00  0.0000E+00
    -14.797  0.0000E+00  0.0000E+00  0.0000E+00
    -14.695  0.0000E+00  0.0000E+00  0.0000E+00
    -14.593  0.0000E+00  0.0000E+00  0.0000E+00
    -14.491  0.0000E+00  0.0000E+00  0.0000E+00
    -14.389  0.1194E-03  0.2983E-19  0.1632E-06
    -14.287  0.9675E-03  0.2638E-03  0.2657E-05
    -14.185  0.1720E-02  0.1659E-02  0.3121E-04
    -14.083  0.3239E-15  0.2740E-02  0.5704E-04
    -13.981  0.7575E-03  0.1814E-02  0.1183E-03
    -13.879  0.1004E-16  0.3995E-17  0.1396E-03
    -13.777  0.1680E-03  0.1645E-02  0.2172E-03
    -13.675  0.1407E-03  0.3612E-03  0.6062E-04
    -13.573  0.5643E-04  0.1163E-03  0.2385E-04
    -13.470  0.0000E+00  0.0000E+00  0.0000E+00
    -13.368  0.0000E+00  0.0000E+00  0.0000E+00