 vasp.5.4.4.18Apr17-6-g9f103f2a35 (build Jun 22 2020 09:27:21) complex           
 executed on tx2_gcc-7.3_libsci-1 date 2021.09.22  08:17:57
 running on   64 total cores
 distrk:  each k-point on   64 cores,    1 groups
 distr:  one band on NCORES_PER_BAND=   8 cores,    8 groups


--------------------------------------------------------------------------------------------------------


 INCAR:
 POTCAR:    PAW_PBE Cs_sv 08Apr2002               
 POTCAR:    PAW_PBE Pb_d 06Sep2000                
 POTCAR:    PAW_PBE Br 06Sep2000                  
 POTCAR:    PAW_PBE Cs_sv 08Apr2002               
   SHA256 =  c1463496f0f6037ed62c6012a8013a89ee9ad6ffb38599dcd6c079e7ed31779b Cs
   COPYR  = (c) Copyright 08Apr2002 Georg Kresse                                
   COPYR  = This file is part of the software VASP. Any use, copying, and all ot
   COPYR  = If you do not have a valid VASP license, you may not use, copy or di
   VRHFIN =Cs: 5s5p6s                                                           
   LEXCH  = PE                                                                  
   EATOM  =   555.6835 eV,   40.8416 Ry                                         
                                                                                
   TITEL  = PAW_PBE Cs_sv 08Apr2002                                             
   LULTRA =        F    use ultrasoft PP ?                                      
   IUNSCR =        1    unscreen: 0-lin 1-nonlin 2-no                           
   RPACOR =    2.200    partial core radius                                     
   POMASS =  132.900; ZVAL   =    9.000    mass and valenz                      
   RCORE  =    2.500    outmost cutoff radius                                   
   RWIGS  =    2.500; RWIGS  =    1.323    wigner-seitz radius (au A)           
   ENMAX  =  220.318; ENMIN  =  165.238 eV                                      
   RCLOC  =    2.207    cutoff for local pot                                    
   LCOR   =        T    correct aug charges                                     
   LPAW   =        T    paw PP                                                  
   EAUG   =  407.933                                                            
   DEXC   =    0.000                                                            
   RMAX   =    2.554    core radius for proj-oper                               
   RAUG   =    1.300    factor for augmentation sphere                          
   RDEP   =    2.590    radius for radial grids                                 
   RDEPT  =    2.117    core radius for aug-charge                              
                                                                                
   Atomic configuration                                                         
   13 entries                                                                   
     n  l   j            E        occ.                                          
     1  0  0.50    -35790.1377   2.0000                                         
     2  0  0.50     -5613.6201   2.0000                                         
     2  1  1.50     -5035.0101   6.0000                                         
     3  0  0.50     -1167.0767   2.0000                                         
     3  1  1.50      -980.9754   6.0000                                         
     3  2  2.50      -708.0703  10.0000                                         
     4  0  0.50      -220.2386   2.0000                                         
     4  1  1.50      -160.7596   6.0000                                         
     4  2  2.50       -74.2354  10.0000                                         
     5  0  0.50       -26.7287   2.0000                                         
     6  0  0.50        -2.0862   1.0000                                         
     5  1  1.50       -13.5159   6.0000                                         
     5  2  2.50        -0.4136   0.0000                                         
   Description                                                                  
     l       E           TYP  RCUT    TYP  RCUT                                 
     0    -26.7287425     23  1.900                                             
     0     -2.0862306     23  1.900                                             
     1    -13.5158719     23  2.500                                             
     1     -2.7211652     23  2.500                                             
     2     -0.4136171     23  2.500                                             
  local pseudopotential read in
  partial core-charges read in
  partial kinetic energy density read in
  atomic valenz-charges read in
  non local Contribution for L=           0  read in
    real space projection operators read in
  non local Contribution for L=           0  read in
    real space projection operators read in
  non local Contribution for L=           1  read in
    real space projection operators read in
  non local Contribution for L=           1  read in
    real space projection operators read in
  non local Contribution for L=           2  read in
    real space projection operators read in
    PAW grid and wavefunctions read in

   number of l-projection  operators is LMAX  =           5
   number of lm-projection operators is LMMAX =          13

 POTCAR:    PAW_PBE Pb_d 06Sep2000                
   SHA256 =  fb885b08f0fba73a15f6a6b0e39bd200c13ec96ef97cf3ecd8e63bade5137abd Pb
   COPYR  = (c) Copyright 06Sep2000 Georg Kresse                                
   COPYR  = This file is part of the software VASP. Any use, copying, and all ot
   COPYR  = If you do not have a valid VASP license, you may not use, copy or di
   VRHFIN =Pb:                                                                  
   LEXCH  = PE                                                                  
   EATOM  =  1661.6185 eV,  122.1255 Ry                                         
                                                                                
   TITEL  = PAW_PBE Pb_d 06Sep2000                                              
   LULTRA =        F    use ultrasoft PP ?                                      
   IUNSCR =        1    unscreen: 0-lin 1-nonlin 2-no                           
   RPACOR =    2.200    partial core radius                                     
   POMASS =  207.200; ZVAL   =   14.000    mass and valenz                      
   RCORE  =    2.500    outmost cutoff radius                                   
   RWIGS  =    3.260; RWIGS  =    1.725    wigner-seitz radius (au A)           
   ENMAX  =  237.835; ENMIN  =  178.376 eV                                      
   ICORE  =        3    local potential                                         
   LCOR   =        T    correct aug charges                                     
   LPAW   =        T    paw PP                                                  
   EAUG   =  391.914                                                            
   DEXC   =    0.000                                                            
   RMAX   =    2.565    core radius for proj-oper                               
   RAUG   =    1.300    factor for augmentation sphere                          
   RDEP   =    2.643    radius for radial grids                                 
   RDEPT  =    2.092    core radius for aug-charge                              
                                                                                
   Atomic configuration                                                         
   16 entries                                                                   
     n  l   j            E        occ.                                          
     1  0  0.50    -88091.8466   2.0000                                         
     2  0  0.50    -15753.4197   2.0000                                         
     2  1  1.50    -13508.1797   6.0000                                         
     3  0  0.50     -3781.7194   2.0000                                         
     3  1  1.50     -3138.2529   6.0000                                         
     3  2  2.50     -2483.2977  10.0000                                         
     4  0  0.50      -856.2895   2.0000                                         
     4  1  1.50      -645.4942   6.0000                                         
     4  2  2.50      -401.8768  10.0000                                         
     4  3  3.50      -132.9059  14.0000                                         
     5  0  0.50      -144.0950   2.0000                                         
     5  1  1.50       -85.7879   6.0000                                         
     5  2  2.50       -21.1769  10.0000                                         
     6  0  0.50       -12.0372   2.0000                                         
     6  1  1.50        -3.4971   2.0000                                         
     5  3  2.50        -2.7212   0.0000                                         
   Description                                                                  
     l       E           TYP  RCUT    TYP  RCUT                                 
     2    -21.1768523     23  2.500                                             
     2      1.3605826     23  2.500                                             
     0    -12.0371562     23  2.500                                             
     0     13.6058260     23  2.500                                             
     1     -3.4971339     23  2.500                                             
     1     13.6058260     23  2.500                                             
     3     -1.3605826      7  2.500                                             
  local pseudopotential read in
  partial core-charges read in
  partial kinetic energy density read in
  atomic valenz-charges read in
  non local Contribution for L=           2  read in
    real space projection operators read in
  non local Contribution for L=           2  read in
    real space projection operators read in
  non local Contribution for L=           0  read in
    real space projection operators read in
  non local Contribution for L=           0  read in
    real space projection operators read in
  non local Contribution for L=           1  read in
    real space projection operators read in
  non local Contribution for L=           1  read in
    real space projection operators read in
    PAW grid and wavefunctions read in

   number of l-projection  operators is LMAX  =           6
   number of lm-projection operators is LMMAX =          18

 POTCAR:    PAW_PBE Br 06Sep2000                  
   SHA256 =  96a73d2954943bbee26f4990d676cc6c3bf44b8dd2c75cd4b3b825d8403f0103 Br
   COPYR  = (c) Copyright 06Sep2000 Georg Kresse                                
   COPYR  = This file is part of the software VASP. Any use, copying, and all ot
   COPYR  = If you do not have a valid VASP license, you may not use, copy or di
   VRHFIN =Br: s2p5                                                             
   LEXCH  = PE                                                                  
   EATOM  =   368.4488 eV,   27.0802 Ry                                         
                                                                                
   TITEL  = PAW_PBE Br 06Sep2000                                                
   LULTRA =        F    use ultrasoft PP ?                                      
   IUNSCR =        1    unscreen: 0-lin 1-nonlin 2-no                           
   RPACOR =    1.900    partial core radius                                     
   POMASS =   79.904; ZVAL   =    7.000    mass and valenz                      
   RCORE  =    2.100    outmost cutoff radius                                   
   RWIGS  =    2.200; RWIGS  =    1.164    wigner-seitz radius (au A)           
   ENMAX  =  216.285; ENMIN  =  162.214 eV                                      
   ICORE  =        3    local potential                                         
   LCOR   =        T    correct aug charges                                     
   LPAW   =        T    paw PP                                                  
   EAUG   =  503.852                                                            
   DEXC   =    0.000                                                            
   RMAX   =    2.139    core radius for proj-oper                               
   RAUG   =    1.300    factor for augmentation sphere                          
   RDEP   =    2.186    radius for radial grids                                 
   RDEPT  =    1.890    core radius for aug-charge                              
                                                                                
   Atomic configuration                                                         
   10 entries                                                                   
     n  l   j            E        occ.                                          
     1  0  0.50    -13316.2796   2.0000                                         
     2  0  0.50     -1732.8239   2.0000                                         
     2  1  1.50     -1528.2193   6.0000                                         
     3  0  0.50      -238.0460   2.0000                                         
     3  1  1.50      -173.4609   6.0000                                         
     3  2  2.50       -66.7132  10.0000                                         
     4  0  0.50       -20.1334   2.0000                                         
     4  1  0.50        -7.8591   5.0000                                         
     4  2  2.50        -8.1635   0.0000                                         
     4  3  2.50        -8.1635   0.0000                                         
   Description                                                                  
     l       E           TYP  RCUT    TYP  RCUT                                 
     0    -20.1333652     23  2.100                                             
     0    -21.4939478     23  2.100                                             
     1     -7.8591052     23  2.100                                             
     1     -3.1608434     23  2.100                                             
     2     -8.1634956     23  2.100                                             
     3     -1.3605826      7  2.100                                             
  local pseudopotential read in
  partial core-charges read in
  partial kinetic energy density read in
  atomic valenz-charges read in
  non local Contribution for L=           0  read in
    real space projection operators read in
  non local Contribution for L=           0  read in
    real space projection operators read in
  non local Contribution for L=           1  read in
    real space projection operators read in
  non local Contribution for L=           1  read in
    real space projection operators read in
  non local Contribution for L=           2  read in
    real space projection operators read in
    PAW grid and wavefunctions read in

   number of l-projection  operators is LMAX  =           5
   number of lm-projection operators is LMMAX =          13

 Optimization of the real space projectors (new method)

 maximal supplied QI-value         = 15.12
 optimisation between [QCUT,QGAM] = [  8.77, 17.69] = [ 21.53, 87.61] Ry 
 Optimized for a Real-space Cutoff    1.85 Angstroem

   l    n(q)    QCUT    max X(q) W(low)/X(q) W(high)/X(q)  e(spline) 
   0     10     8.768    25.322    0.81E-04    0.51E-04    0.48E-06
   0     10     8.768    99.187    0.78E-04    0.50E-04    0.47E-06
   1      9     8.768    11.761    0.21E-03    0.20E-03    0.37E-06
   1      9     8.768     8.275    0.24E-03    0.22E-03    0.41E-06
   2      9     8.768     3.829    0.23E-04    0.15E-03    0.18E-06
 Optimization of the real space projectors (new method)

 maximal supplied QI-value         = 15.12
 optimisation between [QCUT,QGAM] = [  8.77, 17.69] = [ 21.53, 87.61] Ry 
 Optimized for a Real-space Cutoff    1.59 Angstroem

   l    n(q)    QCUT    max X(q) W(low)/X(q) W(high)/X(q)  e(spline) 
   2      7     8.768     3.846    0.48E-04    0.11E-03    0.11E-06
   2      7     8.768     8.593    0.20E-03    0.22E-04    0.24E-06
   0      8     8.768    20.082    0.68E-04    0.88E-04    0.41E-07
   0      8     8.768     8.597    0.89E-04    0.13E-03    0.59E-07
   1      8     8.768    33.223    0.15E-03    0.53E-04    0.87E-07
   1      8     8.768    15.899    0.14E-03    0.44E-04    0.78E-07
 Optimization of the real space projectors (new method)

 maximal supplied QI-value         = 17.95
 optimisation between [QCUT,QGAM] = [  8.80, 17.59] = [ 21.67, 86.68] Ry 
 Optimized for a Real-space Cutoff    1.59 Angstroem

   l    n(q)    QCUT    max X(q) W(low)/X(q) W(high)/X(q)  e(spline) 
   0      8     8.797   175.082    0.82E-04    0.14E-03    0.89E-07
   0      8     8.797   174.004    0.79E-04    0.14E-03    0.86E-07
   1      8     8.797    54.315    0.16E-03    0.14E-04    0.30E-06
   1      8     8.797    42.441    0.16E-03    0.14E-04    0.30E-06
   2      7     8.797     3.596    0.92E-04    0.15E-03    0.85E-07
  PAW_PBE Cs_sv 08Apr2002               :
 energy of atom  1       EATOM= -555.6835
 kinetic energy error for atom=    0.0069 (will be added to EATOM!!)
  PAW_PBE Pb_d 06Sep2000                :
 energy of atom  2       EATOM=-1661.6185
 kinetic energy error for atom=    0.0498 (will be added to EATOM!!)
  PAW_PBE Br 06Sep2000                  :
 energy of atom  3       EATOM= -368.4488
 kinetic energy error for atom=    0.0072 (will be added to EATOM!!)


 POSCAR: Cs8 Pb8 Br24                            
  positions in direct lattice
  No initial velocities read in

 METAGGA = SCAN     LMAXTAU =  6    LMIXTAU =  F

 exchange correlation table for  LEXCH =        8
   RHO(1)=    0.500       N(1)  =     2000
   RHO(2)=  100.500       N(2)  =     4000

 VTST: version 3.2, (02/03/18)

 CHAIN: initializing optimizer
 
 OPT: Using VASP Conjugate-Gradient optimizer
 CHAIN: Read ICHAIN            0

 POSCAR: Cs8 Pb8 Br24                            
  positions in direct lattice
  No initial velocities read in



--------------------------------------------------------------------------------------------------------


 ion  position               nearest neighbor table
   1  0.250  0.250  0.250-
   2  0.250  0.250  0.750-
   3  0.250  0.750  0.250-
   4  0.250  0.750  0.750-
   5  0.750  0.250  0.250-
   6  0.750  0.250  0.750-
   7  0.750  0.750  0.250-
   8  0.750  0.750  0.750-
   9  0.000  0.000  0.000-  25 2.93  26 2.93  17 2.95  19 2.95  33 2.95  37 2.95
  10  0.000  0.000  0.500-  25 2.93  26 2.93  18 2.95  20 2.95  34 2.95  38 2.95
  11  0.000  0.500  0.000-  27 2.93  28 2.93  17 2.95  19 2.95  35 2.95  39 2.95
  12  0.000  0.500  0.500-  27 2.93  28 2.93  18 2.95  20 2.95  36 2.95  40 2.95
  13  0.500  0.000  0.000-  29 2.93  30 2.93  21 2.95  23 2.95  33 2.95  37 2.95
  14  0.500  0.000  0.500-  29 2.93  30 2.93  22 2.95  24 2.95  34 2.95  38 2.95
  15  0.500  0.500  0.000-  31 2.93  32 2.93  21 2.95  23 2.95  35 2.95  39 2.95
  16  0.500  0.500  0.500-  31 2.93  32 2.93  22 2.95  24 2.95  36 2.95  40 2.95
  17  0.977  0.250  0.000-   9 2.95  11 2.95
  18  0.977  0.250  0.500-  10 2.95  12 2.95
  19  0.023  0.750  0.000-   9 2.95  11 2.95
  20  0.023  0.750  0.500-  10 2.95  12 2.95
  21  0.523  0.250  0.000-  13 2.95  15 2.95
  22  0.523  0.250  0.500-  14 2.95  16 2.95
  23  0.477  0.750  0.000-  13 2.95  15 2.95
  24  0.477  0.750  0.500-  14 2.95  16 2.95
  25  0.000  0.000  0.250-   9 2.93  10 2.93
  26  0.000  0.000  0.750-   9 2.93  10 2.93
  27  0.000  0.500  0.250-  11 2.93  12 2.93
  28  0.000  0.500  0.750-  11 2.93  12 2.93
  29  0.500  0.000  0.250-  13 2.93  14 2.93
  30  0.500  0.000  0.750-  13 2.93  14 2.93
  31  0.500  0.500  0.250-  15 2.93  16 2.93
  32  0.500  0.500  0.750-  15 2.93  16 2.93
  33  0.250  0.023  0.000-   9 2.95  13 2.95
  34  0.250  0.023  0.500-  10 2.95  14 2.95
  35  0.250  0.477  0.000-  11 2.95  15 2.95
  36  0.250  0.477  0.500-  12 2.95  16 2.95
  37  0.750  0.977  0.000-   9 2.95  13 2.95
  38  0.750  0.977  0.500-  10 2.95  14 2.95
  39  0.750  0.523  0.000-  11 2.95  15 2.95
  40  0.750  0.523  0.500-  12 2.95  16 2.95

  LATTYP: Found a simple cubic cell.
 ALAT       =    11.7353520000
  
  Lattice vectors:
  
 A1 = (  11.7353520000,   0.0000000000,   0.0000000000)
 A2 = (   0.0000000000,  11.7353520000,   0.0000000000)
 A3 = (   0.0000000000,   0.0000000000,  11.7353520000)


Analysis of symmetry for initial positions (statically):
=====================================================================
 Subroutine PRICEL returns following result:
 
  LATTYP: Found a simple tetragonal cell.
 ALAT       =     8.2981469788
 C/A-ratio  =     0.7071067812
  
  Lattice vectors:
  
 A1 = (   5.8676760000,  -5.8676760000,   0.0000000000)
 A2 = (  -5.8676760000,  -5.8676760000,   0.0000000000)
 A3 = (   0.0000000000,   0.0000000000,  -5.8676760000)
 
   4 primitive cells build up your supercell.
 

 Routine SETGRP: Setting up the symmetry group for a 
 simple cubic supercell.


 Subroutine GETGRP returns: Found 16 space group operations
 (whereof  8 operations were pure point group operations)
 out of a pool of 48 trial point group operations.


The static configuration has the point symmetry C_4h.
 The point group associated with its full space group is D_4h.


Analysis of symmetry for dynamics (positions and initial velocities):
=====================================================================
 Subroutine PRICEL returns following result:
 
  LATTYP: Found a simple tetragonal cell.
 ALAT       =     8.2981469788
 C/A-ratio  =     0.7071067812
  
  Lattice vectors:
  
 A1 = (   5.8676760000,  -5.8676760000,   0.0000000000)
 A2 = (  -5.8676760000,  -5.8676760000,   0.0000000000)
 A3 = (   0.0000000000,   0.0000000000,  -5.8676760000)
 
   4 primitive cells build up your supercell.
 

 Routine SETGRP: Setting up the symmetry group for a 
 simple cubic supercell.


 Subroutine GETGRP returns: Found 16 space group operations
 (whereof  8 operations were pure point group operations)
 out of a pool of 48 trial point group operations.


The dynamic configuration has the point symmetry C_4h.
 The point group associated with its full space group is D_4h.


 Subroutine INISYM returns: Found 16 space group operations
 (whereof  8 operations are pure point group operations),
 and found     4 'primitive' translations



 KPOINTS: 1x1x1                                   

Automatic generation of k-mesh.
Space group operators:
 irot       det(A)        alpha          n_x          n_y          n_z        tau_x        tau_y        tau_z
    1     1.000000     0.000000     1.000000     0.000000     0.000000    -0.000000    -0.000000    -0.000000
    2    -1.000000     0.000000     1.000000     0.000000     0.000000    -0.000000    -0.000000    -0.000000
    3     1.000000    90.000000     0.000000     0.000000    -1.000000    -0.000000    -0.000000    -0.000000
    4    -1.000000    90.000000     0.000000     0.000000    -1.000000    -0.000000    -0.000000    -0.000000
    5     1.000000   180.000000     0.000000     0.000000     1.000000    -0.000000    -0.000000    -0.000000
    6    -1.000000   180.000000     0.000000     0.000000     1.000000    -0.000000    -0.000000    -0.000000
    7     1.000000    90.000000     0.000000     0.000000     1.000000    -0.000000    -0.000000    -0.000000
    8    -1.000000    90.000000     0.000000     0.000000     1.000000    -0.000000    -0.000000    -0.000000
    9     1.000000   180.000000     1.000000     0.000000     0.000000     0.000000    -0.500000    -0.000000
   10    -1.000000   180.000000     1.000000     0.000000     0.000000     0.000000    -0.500000    -0.000000
   11     1.000000   180.000000     0.707107     0.707107     0.000000     0.000000    -0.500000    -0.000000
   12    -1.000000   180.000000     0.707107     0.707107     0.000000     0.000000    -0.500000    -0.000000
   13     1.000000   180.000000     0.000000     1.000000     0.000000     0.000000    -0.500000    -0.000000
   14    -1.000000   180.000000     0.000000     1.000000     0.000000     0.000000    -0.500000    -0.000000
   15     1.000000   180.000000     0.707107    -0.707107     0.000000     0.000000    -0.500000    -0.000000
   16    -1.000000   180.000000     0.707107    -0.707107     0.000000     0.000000    -0.500000    -0.000000
 
 Subroutine IBZKPT returns following result:
 ===========================================
 
 Found      6 irreducible k-points:
 
 Following reciprocal coordinates:
            Coordinates               Weight
  0.000000  0.000000  0.000000      1.000000
  0.500000  0.000000  0.000000      2.000000
  0.500000  0.500000  0.000000      1.000000
  0.000000  0.000000  0.500000      1.000000
  0.500000  0.000000  0.500000      2.000000
  0.500000  0.500000  0.500000      1.000000
 
 Following cartesian coordinates:
            Coordinates               Weight
  0.000000  0.000000  0.000000      1.000000
  0.042606  0.000000  0.000000      2.000000
  0.042606  0.042606  0.000000      1.000000
  0.000000  0.000000  0.042606      1.000000
  0.042606  0.000000  0.042606      2.000000
  0.042606  0.042606  0.042606      1.000000
 


--------------------------------------------------------------------------------------------------------




 Dimension of arrays:
   k-points           NKPTS =      6   k-points in BZ     NKDIM =      6   number of bands    NBANDS=    216
   number of dos      NEDOS =    301   number of ions     NIONS =     40
   non local maximal  LDIM  =      6   non local SUM 2l+1 LMDIM =     18
   total plane-waves  NPLWV = 343000
   max r-space proj   IRMAX =   5660   max aug-charges    IRDMAX=  90331
   dimension x,y,z NGX =    70 NGY =   70 NGZ =   70
   dimension x,y,z NGXF=   140 NGYF=  140 NGZF=  140
   support grid    NGXF=   280 NGYF=  280 NGZF=  280
   ions per type =               8   8  24
   NGX,Y,Z   is equivalent  to a cutoff of   9.92,  9.92,  9.92 a.u.
   NGXF,Y,Z  is equivalent  to a cutoff of  19.83, 19.83, 19.83 a.u.

 SYSTEM =  CsPbBr3 cubic bulk                      
 POSCAR =  Cs8 Pb8 Br24                            

 Startparameter for this run:
   NWRITE =      2    write-flag & timer
   PREC   = accura    normal or accurate (medium, high low for compatibility)
   ISTART =      0    job   : 0-new  1-cont  2-samecut
   ICHARG =      2    charge: 1-file 2-atom 10-const
   ISPIN  =      1    spin polarized calculation?
   LNONCOLLINEAR =      F non collinear calculations
   LSORBIT =      F    spin-orbit coupling
   INIWAV =      1    electr: 0-lowe 1-rand  2-diag
   LASPH  =      T    aspherical Exc in radial PAW
   METAGGA=      F    non-selfconsistent MetaGGA calc.

 Electronic Relaxation 1
   ENCUT  =  300.0 eV  22.05 Ry    4.70 a.u.  16.57 16.57 16.57*2*pi/ulx,y,z
   ENINI  =  300.0     initial cutoff
   ENAUG  =  503.9 eV  augmentation charge cutoff
   NELM   =    200;   NELMIN=  2; NELMDL= -5     # of ELM steps 
   EDIFF  = 0.1E-05   stopping-criterion for ELM
   LREAL  =      T    real-space projection
   NLSPLINE    = F    spline interpolate recip. space projectors
   LCOMPAT=      F    compatible to vasp.4.4
   GGA_COMPAT  = T    GGA compatible to vasp.4.4-vasp.4.6
   LMAXPAW     = -100 max onsite density
   LMAXMIX     =    2 max onsite mixed and CHGCAR
   VOSKOWN=      0    Vosko Wilk Nusair interpolation
   ROPT   =   -0.00025  -0.00025  -0.00025
 Ionic relaxation
   EDIFFG = -.1E-01   stopping-criterion for IOM
   NSW    =      0    number of steps for IOM
   NBLOCK =      1;   KBLOCK =      1    inner block; outer block 
   IBRION =     -1    ionic relax: 0-MD 1-quasi-New 2-CG
   NFREE  =      1    steps in history (QN), initial steepest desc. (CG)
   ISIF   =      3    stress and relaxation
   IWAVPR =     10    prediction:  0-non 1-charg 2-wave 3-comb
   ISYM   =      2    0-nonsym 1-usesym 2-fastsym
   LCORR  =      T    Harris-Foulkes like correction to forces

   POTIM  = 0.5000    time-step for ionic-motion
   TEIN   =    0.0    initial temperature
   TEBEG  =    0.0;   TEEND  =   0.0 temperature during run
   SMASS  =  -3.00    Nose mass-parameter (am)
   estimated Nose-frequenzy (Omega)   =  0.10E-29 period in steps =****** mass=  -0.315E-26a.u.
   SCALEE = 1.0000    scale energy and forces
   NPACO  =    256;   APACO  = 16.0  distance and # of slots for P.C.
   PSTRESS=    0.0 pullay stress

  Mass of Ions in am
   POMASS = 132.90207.20 79.90
  Ionic Valenz
   ZVAL   =   9.00 14.00  7.00
  Atomic Wigner-Seitz radii
   RWIGS  =  -1.00 -1.00 -1.00
  virtual crystal weights 
   VCA    =   1.00  1.00  1.00
   NELECT =     352.0000    total number of electrons
   NUPDOWN=      -1.0000    fix difference up-down

 DOS related values:
   EMIN   =  10.00;   EMAX   =-10.00  energy-range for DOS
   EFERMI =   0.00
   ISMEAR =     0;   SIGMA  =   0.01  broadening in eV -4-tet -1-fermi 0-gaus

 Electronic relaxation 2 (details)
   IALGO  =     38    algorithm
   LDIAG  =      T    sub-space diagonalisation (order eigenvalues)
   LSUBROT=      F    optimize rotation matrix (better conditioning)
   TURBO    =      0    0=normal 1=particle mesh
   IRESTART =      0    0=no restart 2=restart with 2 vectors
   NREBOOT  =      0    no. of reboots
   NMIN     =      0    reboot dimension
   EREF     =   0.00    reference energy to select bands
   IMIX   =      4    mixing-type and parameters
     AMIX     =   0.40;   BMIX     =  1.00
     AMIX_MAG =   1.60;   BMIX_MAG =  1.00
     AMIN     =   0.10
     WC   =   100.;   INIMIX=   1;  MIXPRE=   1;  MAXMIX= -45

 Intra band minimization:
   WEIMIN = 0.0000     energy-eigenvalue tresh-hold
   EBREAK =  0.12E-08  absolut break condition
   DEPER  =   0.30     relativ break condition  

   TIME   =   0.40     timestep for ELM

  volume/ion in A,a.u.               =      40.40       272.66
  Fermi-wavevector in a.u.,A,eV,Ry     =   0.984977  1.861337 13.200107  0.970180
  Thomas-Fermi vector in A             =   2.116250

 Write flags
   LWAVE        =      F    write WAVECAR
   LDOWNSAMPLE  =      F    k-point downsampling of WAVECAR
   LCHARG       =      T    write CHGCAR
   LVTOT        =      F    write LOCPOT, total local potential
   LVHAR        =      T    write LOCPOT, Hartree potential only
   LELF         =      F    write electronic localiz. function (ELF)
   LORBIT       =     10    0 simple, 1 ext, 2 COOP (PROOUT), +10 PAW based schemes


 Dipole corrections
   LMONO  =      F    monopole corrections only (constant potential shift)
   LDIPOL =      F    correct potential (dipole corrections)
   IDIPOL =      0    1-x, 2-y, 3-z, 4-all directions 
   EPSILON=  1.0000000 bulk dielectric constant

 Exchange correlation treatment:
   GGA     =    --    GGA type
   LEXCH   =     8    internal setting for exchange type
   VOSKOWN=      0    Vosko Wilk Nusair interpolation
   LHFCALC =     F    Hartree Fock is set to
   LHFONE  =     F    Hartree Fock one center treatment
   AEXX    =    0.0000 exact exchange contribution

 Linear response parameters
   LEPSILON=     F    determine dielectric tensor
   LRPA    =     F    only Hartree local field effects (RPA)
   LNABLA  =     F    use nabla operator in PAW spheres
   LVEL    =     F    velocity operator in full k-point grid
   LINTERFAST=   F  fast interpolation
   KINTER  =     0    interpolate to denser k-point grid
   CSHIFT  =0.1000    complex shift for real part using Kramers Kronig
   OMEGAMAX=  -1.0    maximum frequency
   DEG_THRESHOLD= 0.2000000E-02 threshold for treating states as degnerate
   RTIME   =   -0.100 relaxation time in fs
  (WPLASMAI=    0.000 imaginary part of plasma frequency in eV, 0.658/RTIME)
   DFIELD  = 0.0000000 0.0000000 0.0000000 field for delta impulse in time

 Orbital magnetization related:
   ORBITALMAG=     F  switch on orbital magnetization
   LCHIMAG   =     F  perturbation theory with respect to B field
   DQ        =  0.001000  dq finite difference perturbation B field
   LLRAUG    =     F  two centre corrections for induced B field



--------------------------------------------------------------------------------------------------------


 Static calculation
 charge density and potential will be updated during run
 non-spin polarized calculation
 Variant of blocked Davidson
 Davidson routine will perform the subspace rotation
 perform sub-space diagonalisation
    after iterative eigenvector-optimisation
 modified Broyden-mixing scheme, WC =      100.0
 initial mixing is a Kerker type mixing with AMIX =  0.4000 and BMIX =      1.0000
 Hartree-type preconditioning will be used
 using additional bands           40
 real space projection scheme for non local part
 use partial core corrections
 calculate Harris-corrections to forces   (improved forces if not selfconsistent)
 use gradient corrections 
 use of overlap-Matrix (Vanderbilt PP)
 Gauss-broadening in eV      SIGMA  =   0.01


--------------------------------------------------------------------------------------------------------


  energy-cutoff  :      300.00
  volume of cell :     1616.17
      direct lattice vectors                 reciprocal lattice vectors
    11.735352000  0.000000000  0.000000000     0.085212612  0.000000000  0.000000000
     0.000000000 11.735352000  0.000000000     0.000000000  0.085212612  0.000000000
     0.000000000  0.000000000 11.735352000     0.000000000  0.000000000  0.085212612

  length of vectors
    11.735352000 11.735352000 11.735352000     0.085212612  0.085212612  0.085212612



 k-points in units of 2pi/SCALE and weight: 1x1x1                                   
   0.00000000  0.00000000  0.00000000       0.125
   0.04260631  0.00000000  0.00000000       0.250
   0.04260631  0.04260631  0.00000000       0.125
   0.00000000  0.00000000  0.04260631       0.125
   0.04260631  0.00000000  0.04260631       0.250
   0.04260631  0.04260631  0.04260631       0.125

 k-points in reciprocal lattice and weights: 1x1x1                                   
   0.00000000  0.00000000  0.00000000       0.125
   0.50000000  0.00000000  0.00000000       0.250
   0.50000000  0.50000000  0.00000000       0.125
   0.00000000  0.00000000  0.50000000       0.125
   0.50000000  0.00000000  0.50000000       0.250
   0.50000000  0.50000000  0.50000000       0.125

 position of ions in fractional coordinates (direct lattice) 
   0.25000000  0.25000000  0.25000000
   0.25000000  0.25000000  0.75000000
   0.25000000  0.75000000  0.25000000
   0.25000000  0.75000000  0.75000000
   0.75000000  0.25000000  0.25000000
   0.75000000  0.25000000  0.75000000
   0.75000000  0.75000000  0.25000000
   0.75000000  0.75000000  0.75000000
   0.00000000  0.00000000  0.00000000
   0.00000000  0.00000000  0.50000000
   0.00000000  0.50000000  0.00000000
   0.00000000  0.50000000  0.50000000
   0.50000000  0.00000000  0.00000000
   0.50000000  0.00000000  0.50000000
   0.50000000  0.50000000  0.00000000
   0.50000000  0.50000000  0.50000000
   0.97750000  0.25000000  0.00000000
   0.97750000  0.25000000  0.50000000
   0.02250000  0.75000000  0.00000000
   0.02250000  0.75000000  0.50000000
   0.52250000  0.25000000  0.00000000
   0.52250000  0.25000000  0.50000000
   0.47750000  0.75000000  0.00000000
   0.47750000  0.75000000  0.50000000
   0.00000000  0.00000000  0.25000000
   0.00000000  0.00000000  0.75000000
   0.00000000  0.50000000  0.25000000
   0.00000000  0.50000000  0.75000000
   0.50000000  0.00000000  0.25000000
   0.50000000  0.00000000  0.75000000
   0.50000000  0.50000000  0.25000000
   0.50000000  0.50000000  0.75000000
   0.25000000  0.02250000  0.00000000
   0.25000000  0.02250000  0.50000000
   0.25000000  0.47750000  0.00000000
   0.25000000  0.47750000  0.50000000
   0.75000000  0.97750000  0.00000000
   0.75000000  0.97750000  0.50000000
   0.75000000  0.52250000  0.00000000
   0.75000000  0.52250000  0.50000000

 position of ions in cartesian coordinates  (Angst):
   2.93383800  2.93383800  2.93383800
   2.93383800  2.93383800  8.80151400
   2.93383800  8.80151400  2.93383800
   2.93383800  8.80151400  8.80151400
   8.80151400  2.93383800  2.93383800
   8.80151400  2.93383800  8.80151400
   8.80151400  8.80151400  2.93383800
   8.80151400  8.80151400  8.80151400
   0.00000000  0.00000000  0.00000000
   0.00000000  0.00000000  5.86767600
   0.00000000  5.86767600  0.00000000
   0.00000000  5.86767600  5.86767600
   5.86767600  0.00000000  0.00000000
   5.86767600  0.00000000  5.86767600
   5.86767600  5.86767600  0.00000000
   5.86767600  5.86767600  5.86767600
  11.47130658  2.93383800  0.00000000
  11.47130658  2.93383800  5.86767600
   0.26404542  8.80151400  0.00000000
   0.26404542  8.80151400  5.86767600
   6.13172142  2.93383800  0.00000000
   6.13172142  2.93383800  5.86767600
   5.60363058  8.80151400  0.00000000
   5.60363058  8.80151400  5.86767600
   0.00000000  0.00000000  2.93383800
   0.00000000  0.00000000  8.80151400
   0.00000000  5.86767600  2.93383800
   0.00000000  5.86767600  8.80151400
   5.86767600  0.00000000  2.93383800
   5.86767600  0.00000000  8.80151400
   5.86767600  5.86767600  2.93383800
   5.86767600  5.86767600  8.80151400
   2.93383800  0.26404542  0.00000000
   2.93383800  0.26404542  5.86767600
   2.93383800  5.60363058  0.00000000
   2.93383800  5.60363058  5.86767600
   8.80151400 11.47130658  0.00000000
   8.80151400 11.47130658  5.86767600
   8.80151400  6.13172142  0.00000000
   8.80151400  6.13172142  5.86767600



--------------------------------------------------------------------------------------------------------


 k-point  1 :   0.0000 0.0000 0.0000  plane waves:   19093
 k-point  2 :   0.5000 0.0000 0.0000  plane waves:   19066
 k-point  3 :   0.5000 0.5000 0.0000  plane waves:   19072
 k-point  4 :   0.0000 0.0000 0.5000  plane waves:   19066
 k-point  5 :   0.5000 0.0000 0.5000  plane waves:   19072
 k-point  6 :   0.5000 0.5000 0.5000  plane waves:   19064

 maximum and minimum number of plane-waves per node :      2417     2354

 maximum number of plane-waves:     19093
 maximum index in each direction: 
   IXMAX=   16   IYMAX=   16   IZMAX=   16
   IXMIN=  -17   IYMIN=  -17   IZMIN=  -17


 real space projection operators:
  total allocation   :      16874.50 KBytes
  max/ min on nodes  :       2213.25       1834.81


 parallel 3D FFT for wavefunctions:
    minimum data exchange during FFTs selected (reduces bandwidth)
 parallel 3D FFT for charge:
    minimum data exchange during FFTs selected (reduces bandwidth)


 total amount of memory used by VASP MPI-rank0    58977. kBytes
=======================================================================

   base      :      30000. kBytes
   nonlr-proj:       6605. kBytes
   fftplans  :       8423. kBytes
   grid      :       7465. kBytes
   one-center:         77. kBytes
   wavefun   :       6407. kBytes

     INWAV:  cpu time    0.0003: real time    0.0007
 Broyden mixing: mesh for mixing (old mesh)
   NGX = 33   NGY = 33   NGZ = 33
  (NGX  =140   NGY  =140   NGZ  =140)
  gives a total of  35937 points

 initial charge density was supplied:
 charge density of overlapping atoms calculated
 number of electron     352.0000000 magnetization 
 keeping initial charge density in first step


--------------------------------------------------------------------------------------------------------


 Maximum index for non-local projection operator          712
 Maximum index for augmentation-charges         2962 (set IRDMAX)


--------------------------------------------------------------------------------------------------------


 First call to EWALD:  gamma=   0.151
 Maximum number of real-space cells 3x 3x 3
 Maximum number of reciprocal cells 3x 3x 3

    FEWALD:  cpu time    0.0037: real time    0.0037


--------------------------------------- Iteration      1(   1)  ---------------------------------------


    POTLOK:  cpu time    0.2594: real time    0.2671
    SETDIJ:  cpu time    1.2115: real time    1.2115
     EDDAV:  cpu time   12.8410: real time   12.8460
       DOS:  cpu time    0.0007: real time    0.0007
    --------------------------------------------
      LOOP:  cpu time   14.3127: real time   14.3253

 eigenvalue-minimisations  :  2688
 total energy-change (2. order) : 0.1343334E+04  (-0.1129339E+05)
 number of electron     352.0000000 magnetization 
 augmentation part      352.0000000 magnetization 

 Free energy of the ion-electron system (eV)
  ---------------------------------------------------
  alpha Z        PSCENC =       892.99476195
  Ewald energy   TEWEN  =    -18221.58290915
  -Hartree energ DENC   =     -7527.42111483
  -exchange      EXHF   =         0.00000000
  -V(xc)+E(xc)   XCENC  =       924.67922583
  PAW double counting   =     21633.96174531   -22707.92185401
  entropy T*S    EENTRO =        -0.00184772
  eigenvalues    EBANDS =      -231.93422714
  atomic energy  EATOM  =     26580.56019858
  Solvation  Ediel_sol  =         0.00000000
  ---------------------------------------------------
  free energy    TOTEN  =      1343.33397882 eV

  energy without entropy =     1343.33582654  energy(sigma->0) =     1343.33490268


--------------------------------------------------------------------------------------------------------




--------------------------------------- Iteration      1(   2)  ---------------------------------------


     EDDAV:  cpu time   14.1654: real time   14.1888
       DOS:  cpu time    0.0004: real time    0.0004
    --------------------------------------------
      LOOP:  cpu time   14.1658: real time   14.1891

 eigenvalue-minimisations  :  3128
 total energy-change (2. order) :-0.2471432E+04  (-0.2378305E+04)
 number of electron     352.0000000 magnetization 
 augmentation part      352.0000000 magnetization 

 Free energy of the ion-electron system (eV)
  ---------------------------------------------------
  alpha Z        PSCENC =       892.99476195
  Ewald energy   TEWEN  =    -18221.58290915
  -Hartree energ DENC   =     -7527.42111483
  -exchange      EXHF   =         0.00000000
  -V(xc)+E(xc)   XCENC  =       924.67922583
  PAW double counting   =     21633.96174531   -22707.92185401
  entropy T*S    EENTRO =        -0.00000000
  eigenvalues    EBANDS =     -2703.36786225
  atomic energy  EATOM  =     26580.56019858
  Solvation  Ediel_sol  =         0.00000000
  ---------------------------------------------------
  free energy    TOTEN  =     -1128.09780857 eV

  energy without entropy =    -1128.09780857  energy(sigma->0) =    -1128.09780857


--------------------------------------------------------------------------------------------------------




--------------------------------------- Iteration      1(   3)  ---------------------------------------


     EDDAV:  cpu time   15.1801: real time   15.2363
       DOS:  cpu time    0.0004: real time    0.0004
    --------------------------------------------
      LOOP:  cpu time   15.1805: real time   15.2367

 eigenvalue-minimisations  :  3496
 total energy-change (2. order) :-0.3669723E+03  (-0.3647567E+03)
 number of electron     352.0000000 magnetization 
 augmentation part      352.0000000 magnetization 

 Free energy of the ion-electron system (eV)
  ---------------------------------------------------
  alpha Z        PSCENC =       892.99476195
  Ewald energy   TEWEN  =    -18221.58290915
  -Hartree energ DENC   =     -7527.42111483
  -exchange      EXHF   =         0.00000000
  -V(xc)+E(xc)   XCENC  =       924.67922583
  PAW double counting   =     21633.96174531   -22707.92185401
  entropy T*S    EENTRO =        -0.00000000
  eigenvalues    EBANDS =     -3070.34011449
  atomic energy  EATOM  =     26580.56019858
  Solvation  Ediel_sol  =         0.00000000
  ---------------------------------------------------
  free energy    TOTEN  =     -1495.07006081 eV

  energy without entropy =    -1495.07006081  energy(sigma->0) =    -1495.07006081


--------------------------------------------------------------------------------------------------------




--------------------------------------- Iteration      1(   4)  ---------------------------------------


     EDDAV:  cpu time   14.0046: real time   14.0303
       DOS:  cpu time    0.0007: real time    0.0007
    --------------------------------------------
      LOOP:  cpu time   14.0054: real time   14.0311

 eigenvalue-minimisations  :  3072
 total energy-change (2. order) :-0.1221609E+02  (-0.1216786E+02)
 number of electron     352.0000000 magnetization 
 augmentation part      352.0000000 magnetization 

 Free energy of the ion-electron system (eV)
  ---------------------------------------------------
  alpha Z        PSCENC =       892.99476195
  Ewald energy   TEWEN  =    -18221.58290915
  -Hartree energ DENC   =     -7527.42111483
  -exchange      EXHF   =         0.00000000
  -V(xc)+E(xc)   XCENC  =       924.67922583
  PAW double counting   =     21633.96174531   -22707.92185401
  entropy T*S    EENTRO =        -0.00000000
  eigenvalues    EBANDS =     -3082.55620326
  atomic energy  EATOM  =     26580.56019858
  Solvation  Ediel_sol  =         0.00000000
  ---------------------------------------------------
  free energy    TOTEN  =     -1507.28614958 eV

  energy without entropy =    -1507.28614958  energy(sigma->0) =    -1507.28614958


--------------------------------------------------------------------------------------------------------




--------------------------------------- Iteration      1(   5)  ---------------------------------------


     EDDAV:  cpu time   15.0786: real time   15.1245
       DOS:  cpu time    0.0004: real time    0.0004
    CHARGE:  cpu time    3.0810: real time    3.0812
    MIXING:  cpu time    0.0016: real time    0.0016
    --------------------------------------------
      LOOP:  cpu time   18.1617: real time   18.2077

 eigenvalue-minimisations  :  3464
 total energy-change (2. order) :-0.5903211E+00  (-0.5900070E+00)
 number of electron     351.9999988 magnetization 
 augmentation part       -6.5327344 magnetization 

 Broyden mixing:
  rms(total) = 0.10613E+01    rms(broyden)= 0.10610E+01
  rms(prec ) = 0.13959E+01
  weight for this iteration     100.00

 Free energy of the ion-electron system (eV)
  ---------------------------------------------------
  alpha Z        PSCENC =       892.99476195
  Ewald energy   TEWEN  =    -18221.58290915
  -Hartree energ DENC   =     -7527.42111483
  -exchange      EXHF   =         0.00000000
  -V(xc)+E(xc)   XCENC  =       924.67922583
  PAW double counting   =     21633.96174531   -22707.92185401
  entropy T*S    EENTRO =        -0.00000000
  eigenvalues    EBANDS =     -3083.14652441
  atomic energy  EATOM  =     26580.56019858
  Solvation  Ediel_sol  =         0.00000000
  ---------------------------------------------------
  free energy    TOTEN  =     -1507.87647073 eV

  energy without entropy =    -1507.87647073  energy(sigma->0) =    -1507.87647073


--------------------------------------------------------------------------------------------------------




--------------------------------------- Iteration      1(   6)  ---------------------------------------


    POTLOK:  cpu time    0.2659: real time    0.3042
    SETDIJ:  cpu time    1.1971: real time    1.1972
     EDDAV:  cpu time   14.7611: real time   14.7617
       DOS:  cpu time    0.0007: real time    0.0007
    CHARGE:  cpu time    3.1063: real time    3.1064
    MIXING:  cpu time    0.0016: real time    0.0016
    --------------------------------------------
      LOOP:  cpu time   19.3327: real time   19.3717

 eigenvalue-minimisations  :  3360
 total energy-change (2. order) : 0.7857445E+02  (-0.2254002E+01)
 number of electron     351.9999988 magnetization 
 augmentation part       -5.1248996 magnetization 

 Broyden mixing:
  rms(total) = 0.74945E+00    rms(broyden)= 0.74936E+00
  rms(prec ) = 0.90555E+00
  weight for this iteration     100.00

 eigenvalues of (default mixing * dielectric matrix)
  average eigenvalue GAMMA=   1.2783
  1.2783

 Free energy of the ion-electron system (eV)
  ---------------------------------------------------
  alpha Z        PSCENC =       892.99476195
  Ewald energy   TEWEN  =    -18221.58290915
  -Hartree energ DENC   =     -7513.49608537
  -exchange      EXHF   =         0.00000000
  -V(xc)+E(xc)   XCENC  =       955.89033640
  PAW double counting   =     22029.45014665   -23103.01959140
  entropy T*S    EENTRO =        -0.00000000
  eigenvalues    EBANDS =     -3050.09888302
  atomic energy  EATOM  =     26580.56019858
  Solvation  Ediel_sol  =         0.00000000
  ---------------------------------------------------
  free energy    TOTEN  =     -1429.30202536 eV

  energy without entropy =    -1429.30202536  energy(sigma->0) =    -1429.30202536


--------------------------------------------------------------------------------------------------------




--------------------------------------- Iteration      1(   7)  ---------------------------------------


    POTLOK:  cpu time    0.2989: real time    0.3026
    SETDIJ:  cpu time    1.2084: real time    1.2084
     EDDAV:  cpu time   14.3343: real time   14.3350
       DOS:  cpu time    0.0004: real time    0.0004
    CHARGE:  cpu time    3.1130: real time    3.1132
    MIXING:  cpu time    0.0017: real time    0.0017
    --------------------------------------------
      LOOP:  cpu time   18.9566: real time   18.9613

 eigenvalue-minimisations  :  3216
 total energy-change (2. order) : 0.4965514E+00  (-0.7508589E+00)
 number of electron     351.9999988 magnetization 
 augmentation part       -4.6112834 magnetization 

 Broyden mixing:
  rms(total) = 0.36240E+00    rms(broyden)= 0.36239E+00
  rms(prec ) = 0.39632E+00
  weight for this iteration     100.00

 eigenvalues of (default mixing * dielectric matrix)
  average eigenvalue GAMMA=   1.3345
  1.3345  1.3345

 Free energy of the ion-electron system (eV)
  ---------------------------------------------------
  alpha Z        PSCENC =       892.99476195
  Ewald energy   TEWEN  =    -18221.58290915
  -Hartree energ DENC   =     -7558.80235736
  -exchange      EXHF   =         0.00000000
  -V(xc)+E(xc)   XCENC  =       961.53982431
  PAW double counting   =     22731.43241635   -23804.20750309
  entropy T*S    EENTRO =        -0.00000000
  eigenvalues    EBANDS =     -3010.73990559
  atomic energy  EATOM  =     26580.56019858
  Solvation  Ediel_sol  =         0.00000000
  ---------------------------------------------------
  free energy    TOTEN  =     -1428.80547400 eV

  energy without entropy =    -1428.80547400  energy(sigma->0) =    -1428.80547400


--------------------------------------------------------------------------------------------------------




--------------------------------------- Iteration      1(   8)  ---------------------------------------


    POTLOK:  cpu time    0.2533: real time    0.2891
    SETDIJ:  cpu time    1.1992: real time    1.1992
     EDDAV:  cpu time   14.1206: real time   14.1213
       DOS:  cpu time    0.0005: real time    0.0005
    CHARGE:  cpu time    3.1170: real time    3.1172
    MIXING:  cpu time    0.0016: real time    0.0016
    --------------------------------------------
      LOOP:  cpu time   18.6922: real time   18.7289

 eigenvalue-minimisations  :  3144
 total energy-change (2. order) :-0.1739660E+00  (-0.3715222E-01)
 number of electron     351.9999988 magnetization 
 augmentation part       -4.6845067 magnetization 

 Broyden mixing:
  rms(total) = 0.20888E+00    rms(broyden)= 0.20888E+00
  rms(prec ) = 0.22909E+00
  weight for this iteration     100.00

 eigenvalues of (default mixing * dielectric matrix)
  average eigenvalue GAMMA=   1.7581
  1.0911  1.3328  2.8504

 Free energy of the ion-electron system (eV)
  ---------------------------------------------------
  alpha Z        PSCENC =       892.99476195
  Ewald energy   TEWEN  =    -18221.58290915
  -Hartree energ DENC   =     -7564.82789020
  -exchange      EXHF   =         0.00000000
  -V(xc)+E(xc)   XCENC  =       962.38406206
  PAW double counting   =     23010.53277504   -24083.77296895
  entropy T*S    EENTRO =        -0.00000000
  eigenvalues    EBANDS =     -3005.26746937
  atomic energy  EATOM  =     26580.56019858
  Solvation  Ediel_sol  =         0.00000000
  ---------------------------------------------------
  free energy    TOTEN  =     -1428.97944004 eV

  energy without entropy =    -1428.97944004  energy(sigma->0) =    -1428.97944004


--------------------------------------------------------------------------------------------------------




--------------------------------------- Iteration      1(   9)  ---------------------------------------


    POTLOK:  cpu time    0.2699: real time    0.3092
    SETDIJ:  cpu time    1.1984: real time    1.1984
     EDDAV:  cpu time   13.2071: real time   13.2077
       DOS:  cpu time    0.0004: real time    0.0004
    CHARGE:  cpu time    3.1129: real time    3.1130
    MIXING:  cpu time    0.0017: real time    0.0017
    --------------------------------------------
      LOOP:  cpu time   17.7905: real time   17.8305

 eigenvalue-minimisations  :  2824
 total energy-change (2. order) :-0.8003235E-01  (-0.1496345E-01)
 number of electron     351.9999988 magnetization 
 augmentation part       -4.7305206 magnetization 

 Broyden mixing:
  rms(total) = 0.47593E-01    rms(broyden)= 0.47592E-01
  rms(prec ) = 0.50565E-01
  weight for this iteration     100.00

 eigenvalues of (default mixing * dielectric matrix)
  average eigenvalue GAMMA=   1.4786
  2.5703  1.2536  1.2536  0.8368

 Free energy of the ion-electron system (eV)
  ---------------------------------------------------
  alpha Z        PSCENC =       892.99476195
  Ewald energy   TEWEN  =    -18221.58290915
  -Hartree energ DENC   =     -7571.59891682
  -exchange      EXHF   =         0.00000000
  -V(xc)+E(xc)   XCENC  =       964.40224722
  PAW double counting   =     23389.86819882   -24464.07401434
  entropy T*S    EENTRO =        -0.00000000
  eigenvalues    EBANDS =     -2999.62903863
  atomic energy  EATOM  =     26580.56019858
  Solvation  Ediel_sol  =         0.00000000
  ---------------------------------------------------
  free energy    TOTEN  =     -1429.05947239 eV

  energy without entropy =    -1429.05947239  energy(sigma->0) =    -1429.05947239


--------------------------------------------------------------------------------------------------------




--------------------------------------- Iteration      1(  10)  ---------------------------------------


    POTLOK:  cpu time    0.2740: real time    0.2989
    SETDIJ:  cpu time    1.1980: real time    1.1981
     EDDAV:  cpu time   15.4607: real time   15.4613
       DOS:  cpu time    0.0004: real time    0.0004
    CHARGE:  cpu time    3.1178: real time    3.1180
    MIXING:  cpu time    0.0017: real time    0.0017
    --------------------------------------------
      LOOP:  cpu time   20.0525: real time   20.0782

 eigenvalue-minimisations  :  3608
 total energy-change (2. order) :-0.1098668E-02  (-0.9441395E-03)
 number of electron     351.9999988 magnetization 
 augmentation part       -4.7160787 magnetization 

 Broyden mixing:
  rms(total) = 0.27285E-01    rms(broyden)= 0.27284E-01
  rms(prec ) = 0.29919E-01
  weight for this iteration     100.00

 eigenvalues of (default mixing * dielectric matrix)
  average eigenvalue GAMMA=   1.5518
  2.3430  2.3430  1.1181  1.1181  0.8367

 Free energy of the ion-electron system (eV)
  ---------------------------------------------------
  alpha Z        PSCENC =       892.99476195
  Ewald energy   TEWEN  =    -18221.58290915
  -Hartree energ DENC   =     -7569.90656281
  -exchange      EXHF   =         0.00000000
  -V(xc)+E(xc)   XCENC  =       964.16771073
  PAW double counting   =     23342.65408715   -24416.85557876
  entropy T*S    EENTRO =        -0.00000000
  eigenvalues    EBANDS =     -3001.09227875
  atomic energy  EATOM  =     26580.56019858
  Solvation  Ediel_sol  =         0.00000000
  ---------------------------------------------------
  free energy    TOTEN  =     -1429.06057105 eV

  energy without entropy =    -1429.06057105  energy(sigma->0) =    -1429.06057105


--------------------------------------------------------------------------------------------------------




--------------------------------------- Iteration      1(  11)  ---------------------------------------


    POTLOK:  cpu time    0.2768: real time    0.2996
    SETDIJ:  cpu time    1.1992: real time    1.1993
     EDDAV:  cpu time   13.6884: real time   13.6891
       DOS:  cpu time    0.0004: real time    0.0004
    CHARGE:  cpu time    3.1160: real time    3.1161
    MIXING:  cpu time    0.0018: real time    0.0018
    --------------------------------------------
      LOOP:  cpu time   18.2825: real time   18.3063

 eigenvalue-minimisations  :  2984
 total energy-change (2. order) :-0.2784792E-02  (-0.2526072E-03)
 number of electron     351.9999988 magnetization 
 augmentation part       -4.7131296 magnetization 

 Broyden mixing:
  rms(total) = 0.98730E-02    rms(broyden)= 0.98729E-02
  rms(prec ) = 0.12283E-01
  weight for this iteration     100.00

 eigenvalues of (default mixing * dielectric matrix)
  average eigenvalue GAMMA=   1.5979
  2.6307  2.6307  1.2579  1.2579  0.9051  0.9051

 Free energy of the ion-electron system (eV)
  ---------------------------------------------------
  alpha Z        PSCENC =       892.99476195
  Ewald energy   TEWEN  =    -18221.58290915
  -Hartree energ DENC   =     -7567.82279403
  -exchange      EXHF   =         0.00000000
  -V(xc)+E(xc)   XCENC  =       964.07852489
  PAW double counting   =     23305.96677714   -24380.29467695
  entropy T*S    EENTRO =        -0.00000000
  eigenvalues    EBANDS =     -3002.96323828
  atomic energy  EATOM  =     26580.56019858
  Solvation  Ediel_sol  =         0.00000000
  ---------------------------------------------------
  free energy    TOTEN  =     -1429.06335584 eV

  energy without entropy =    -1429.06335584  energy(sigma->0) =    -1429.06335584


--------------------------------------------------------------------------------------------------------




--------------------------------------- Iteration      1(  12)  ---------------------------------------


    POTLOK:  cpu time    0.2735: real time    0.3060
    SETDIJ:  cpu time    1.1995: real time    1.1996
     EDDAV:  cpu time   13.4301: real time   13.4307
       DOS:  cpu time    0.0004: real time    0.0004
    CHARGE:  cpu time    3.1182: real time    3.1183
    MIXING:  cpu time    0.0017: real time    0.0017
    --------------------------------------------
      LOOP:  cpu time   18.0235: real time   18.0567

 eigenvalue-minimisations  :  2896
 total energy-change (2. order) :-0.8486649E-03  (-0.1029950E-03)
 number of electron     351.9999988 magnetization 
 augmentation part       -4.7170017 magnetization 

 Broyden mixing:
  rms(total) = 0.41786E-02    rms(broyden)= 0.41784E-02
  rms(prec ) = 0.46805E-02
  weight for this iteration     100.00

 eigenvalues of (default mixing * dielectric matrix)
  average eigenvalue GAMMA=   1.6377
  2.9890  2.5729  1.7348  1.2241  0.9731  0.9851  0.9851

 Free energy of the ion-electron system (eV)
  ---------------------------------------------------
  alpha Z        PSCENC =       892.99476195
  Ewald energy   TEWEN  =    -18221.58290915
  -Hartree energ DENC   =     -7568.03542040
  -exchange      EXHF   =         0.00000000
  -V(xc)+E(xc)   XCENC  =       964.22054703
  PAW double counting   =     23313.74605365   -24388.18661281
  entropy T*S    EENTRO =        -0.00000000
  eigenvalues    EBANDS =     -3002.78082336
  atomic energy  EATOM  =     26580.56019858
  Solvation  Ediel_sol  =         0.00000000
  ---------------------------------------------------
  free energy    TOTEN  =     -1429.06420451 eV

  energy without entropy =    -1429.06420451  energy(sigma->0) =    -1429.06420451


--------------------------------------------------------------------------------------------------------




--------------------------------------- Iteration      1(  13)  ---------------------------------------


    POTLOK:  cpu time    0.2710: real time    0.3030
    SETDIJ:  cpu time    1.1977: real time    1.1978
     EDDAV:  cpu time   14.4601: real time   14.4608
       DOS:  cpu time    0.0010: real time    0.0010
    CHARGE:  cpu time    3.1206: real time    3.1207
    MIXING:  cpu time    0.0020: real time    0.0020
    --------------------------------------------
      LOOP:  cpu time   19.0524: real time   19.0853

 eigenvalue-minimisations  :  3256
 total energy-change (2. order) :-0.3882820E-04  (-0.9952796E-05)
 number of electron     351.9999988 magnetization 
 augmentation part       -4.7162934 magnetization 

 Broyden mixing:
  rms(total) = 0.15523E-02    rms(broyden)= 0.15523E-02
  rms(prec ) = 0.16171E-02
  weight for this iteration     100.00

 eigenvalues of (default mixing * dielectric matrix)
  average eigenvalue GAMMA=   1.5891
  2.9900  2.6360  1.6404  1.3695  1.1384  1.1384  0.9478  0.8519

 Free energy of the ion-electron system (eV)
  ---------------------------------------------------
  alpha Z        PSCENC =       892.99476195
  Ewald energy   TEWEN  =    -18221.58290915
  -Hartree energ DENC   =     -7568.40014064
  -exchange      EXHF   =         0.00000000
  -V(xc)+E(xc)   XCENC  =       964.24471028
  PAW double counting   =     23310.05852777   -24384.49334298
  entropy T*S    EENTRO =        -0.00000000
  eigenvalues    EBANDS =     -3002.44604914
  atomic energy  EATOM  =     26580.56019858
  Solvation  Ediel_sol  =         0.00000000
  ---------------------------------------------------
  free energy    TOTEN  =     -1429.06424334 eV

  energy without entropy =    -1429.06424334  energy(sigma->0) =    -1429.06424334


--------------------------------------------------------------------------------------------------------




--------------------------------------- Iteration      1(  14)  ---------------------------------------


    POTLOK:  cpu time    0.2787: real time    0.3527
    SETDIJ:  cpu time    1.1969: real time    1.1970
     EDDAV:  cpu time   13.3256: real time   13.3261
       DOS:  cpu time    0.0005: real time    0.0005
    CHARGE:  cpu time    3.1160: real time    3.1160
    MIXING:  cpu time    0.0018: real time    0.0018
    --------------------------------------------
      LOOP:  cpu time   17.9195: real time   17.9942

 eigenvalue-minimisations  :  2856
 total energy-change (2. order) :-0.2593261E-04  (-0.1022791E-05)
 number of electron     351.9999988 magnetization 
 augmentation part       -4.7158082 magnetization 

 Broyden mixing:
  rms(total) = 0.76794E-03    rms(broyden)= 0.76793E-03
  rms(prec ) = 0.79318E-03
  weight for this iteration     100.00

 eigenvalues of (default mixing * dielectric matrix)
  average eigenvalue GAMMA=   1.6781
  2.9887  2.3760  2.3760  2.3200  1.1191  1.1191  0.9765  0.9765  0.8506

 Free energy of the ion-electron system (eV)
  ---------------------------------------------------
  alpha Z        PSCENC =       892.99476195
  Ewald energy   TEWEN  =    -18221.58290915
  -Hartree energ DENC   =     -7568.42497831
  -exchange      EXHF   =         0.00000000
  -V(xc)+E(xc)   XCENC  =       964.24426339
  PAW double counting   =     23309.72457240   -24384.15571906
  entropy T*S    EENTRO =        -0.00000000
  eigenvalues    EBANDS =     -3002.42445907
  atomic energy  EATOM  =     26580.56019858
  Solvation  Ediel_sol  =         0.00000000
  ---------------------------------------------------
  free energy    TOTEN  =     -1429.06426927 eV

  energy without entropy =    -1429.06426927  energy(sigma->0) =    -1429.06426927


--------------------------------------------------------------------------------------------------------




--------------------------------------- Iteration      1(  15)  ---------------------------------------


    POTLOK:  cpu time    0.2943: real time    0.3020
    SETDIJ:  cpu time    1.1963: real time    1.1963
     EDDAV:  cpu time   10.3337: real time   10.3345
       DOS:  cpu time    0.0004: real time    0.0004
    CHARGE:  cpu time    3.1176: real time    3.1178
    MIXING:  cpu time    0.0019: real time    0.0019
    --------------------------------------------
      LOOP:  cpu time   14.9442: real time   14.9529

 eigenvalue-minimisations  :  1792
 total energy-change (2. order) : 0.1083533E-04  (-0.9027290E-07)
 number of electron     351.9999988 magnetization 
 augmentation part       -4.7160058 magnetization 

 Broyden mixing:
  rms(total) = 0.11508E-03    rms(broyden)= 0.11506E-03
  rms(prec ) = 0.14322E-03
  weight for this iteration     100.00

 eigenvalues of (default mixing * dielectric matrix)
  average eigenvalue GAMMA=   1.6308
  3.1377  2.6102  2.6102  1.7930  1.2649  1.0929  1.0929  0.9426  0.9426  0.8210

 Free energy of the ion-electron system (eV)
  ---------------------------------------------------
  alpha Z        PSCENC =       892.99476195
  Ewald energy   TEWEN  =    -18221.58290915
  -Hartree energ DENC   =     -7568.43582776
  -exchange      EXHF   =         0.00000000
  -V(xc)+E(xc)   XCENC  =       964.24449324
  PAW double counting   =     23310.42726770   -24384.85536172
  entropy T*S    EENTRO =        -0.00000000
  eigenvalues    EBANDS =     -3002.41688127
  atomic energy  EATOM  =     26580.56019858
  Solvation  Ediel_sol  =         0.00000000
  ---------------------------------------------------
  free energy    TOTEN  =     -1429.06425843 eV

  energy without entropy =    -1429.06425843  energy(sigma->0) =    -1429.06425843


--------------------------------------------------------------------------------------------------------




--------------------------------------- Iteration      1(  16)  ---------------------------------------


    POTLOK:  cpu time    0.2826: real time    0.4147
    SETDIJ:  cpu time    1.1952: real time    1.1953
     EDDAV:  cpu time   10.0859: real time   10.0863
       DOS:  cpu time    0.0004: real time    0.0004
    CHARGE:  cpu time    3.1264: real time    3.1265
    MIXING:  cpu time    0.0019: real time    0.0019
    --------------------------------------------
      LOOP:  cpu time   14.6925: real time   14.8251

 eigenvalue-minimisations  :  1696
 total energy-change (2. order) : 0.4872861E-05  (-0.4159491E-07)
 number of electron     351.9999988 magnetization 
 augmentation part       -4.7159658 magnetization 

 Broyden mixing:
  rms(total) = 0.65882E-04    rms(broyden)= 0.65878E-04
  rms(prec ) = 0.72105E-04
  weight for this iteration     100.00

 eigenvalues of (default mixing * dielectric matrix)
  average eigenvalue GAMMA=   1.5868
  3.0682  2.6229  2.6229  1.8791  1.2149  1.1176  1.1176  1.0267  0.8940  0.9454
  0.9454

 Free energy of the ion-electron system (eV)
  ---------------------------------------------------
  alpha Z        PSCENC =       892.99476195
  Ewald energy   TEWEN  =    -18221.58290915
  -Hartree energ DENC   =     -7568.45881331
  -exchange      EXHF   =         0.00000000
  -V(xc)+E(xc)   XCENC  =       964.24589367
  PAW double counting   =     23310.27155096   -24384.69881869
  entropy T*S    EENTRO =        -0.00000000
  eigenvalues    EBANDS =     -3002.39611757
  atomic energy  EATOM  =     26580.56019858
  Solvation  Ediel_sol  =         0.00000000
  ---------------------------------------------------
  free energy    TOTEN  =     -1429.06425356 eV

  energy without entropy =    -1429.06425356  energy(sigma->0) =    -1429.06425356


--------------------------------------------------------------------------------------------------------




--------------------------------------- Iteration      1(  17)  ---------------------------------------


    POTLOK:  cpu time    0.3090: real time    0.3112
    SETDIJ:  cpu time    1.2003: real time    1.2004
     EDDAV:  cpu time    9.9357: real time    9.9363
       DOS:  cpu time    0.0004: real time    0.0004
    CHARGE:  cpu time    3.1263: real time    3.1264
    MIXING:  cpu time    0.0021: real time    0.0021
    --------------------------------------------
      LOOP:  cpu time   14.5739: real time   14.5769

 eigenvalue-minimisations  :  1648
 total energy-change (2. order) : 0.5046747E-05  (-0.9507427E-08)
 number of electron     351.9999988 magnetization 
 augmentation part       -4.7159431 magnetization 

 Broyden mixing:
  rms(total) = 0.24186E-04    rms(broyden)= 0.24184E-04
  rms(prec ) = 0.29005E-04
  weight for this iteration     100.00

 eigenvalues of (default mixing * dielectric matrix)
  average eigenvalue GAMMA=   1.6824
  3.3113  2.7193  2.7193  2.4138  1.6941  1.3987  1.1005  1.1005  0.9747  0.9747
  0.8907  0.8907

 Free energy of the ion-electron system (eV)
  ---------------------------------------------------
  alpha Z        PSCENC =       892.99476195
  Ewald energy   TEWEN  =    -18221.58290915
  -Hartree energ DENC   =     -7568.45839547
  -exchange      EXHF   =         0.00000000
  -V(xc)+E(xc)   XCENC  =       964.24561586
  PAW double counting   =     23310.25503612   -24384.68242178
  entropy T*S    EENTRO =        -0.00000000
  eigenvalues    EBANDS =     -3002.39613463
  atomic energy  EATOM  =     26580.56019858
  Solvation  Ediel_sol  =         0.00000000
  ---------------------------------------------------
  free energy    TOTEN  =     -1429.06424852 eV

  energy without entropy =    -1429.06424852  energy(sigma->0) =    -1429.06424852


--------------------------------------------------------------------------------------------------------




--------------------------------------- Iteration      1(  18)  ---------------------------------------


    POTLOK:  cpu time    0.2603: real time    0.2975
    SETDIJ:  cpu time    1.1976: real time    1.1977
     EDDAV:  cpu time    9.9657: real time    9.9661
       DOS:  cpu time    0.0004: real time    0.0004
    CHARGE:  cpu time    3.1269: real time    3.1270
    MIXING:  cpu time    0.0020: real time    0.0020
    --------------------------------------------
      LOOP:  cpu time   14.5529: real time   14.5906

 eigenvalue-minimisations  :  1656
 total energy-change (2. order) : 0.1347477E-05  (-0.5204893E-08)
 number of electron     351.9999988 magnetization 
 augmentation part       -4.7159606 magnetization 

 Broyden mixing:
  rms(total) = 0.17574E-04    rms(broyden)= 0.17573E-04
  rms(prec ) = 0.19872E-04
  weight for this iteration     100.00

 eigenvalues of (default mixing * dielectric matrix)
  average eigenvalue GAMMA=   1.5985
  3.3087  2.7379  2.7379  2.1722  1.6068  1.6068  1.0981  1.0981  1.0110  1.0110
  0.8777  0.8777  0.6363

 Free energy of the ion-electron system (eV)
  ---------------------------------------------------
  alpha Z        PSCENC =       892.99476195
  Ewald energy   TEWEN  =    -18221.58290915
  -Hartree energ DENC   =     -7568.46184753
  -exchange      EXHF   =         0.00000000
  -V(xc)+E(xc)   XCENC  =       964.24582914
  PAW double counting   =     23310.21437811   -24384.64156014
  entropy T*S    EENTRO =        -0.00000000
  eigenvalues    EBANDS =     -3002.39309813
  atomic energy  EATOM  =     26580.56019858
  Solvation  Ediel_sol  =         0.00000000
  ---------------------------------------------------
  free energy    TOTEN  =     -1429.06424717 eV

  energy without entropy =    -1429.06424717  energy(sigma->0) =    -1429.06424717


--------------------------------------------------------------------------------------------------------




--------------------------------------- Iteration      1(  19)  ---------------------------------------


    POTLOK:  cpu time    0.2976: real time    0.3013
    SETDIJ:  cpu time    1.1968: real time    1.1968
     EDDAV:  cpu time    9.9451: real time    9.9457
       DOS:  cpu time    0.0004: real time    0.0004
    --------------------------------------------
      LOOP:  cpu time   11.4398: real time   11.4441

 eigenvalue-minimisations  :  1648
 total energy-change (2. order) :-0.6626638E-06  (-0.1650627E-08)
 number of electron     351.9999988 magnetization 
 augmentation part       -4.7159606 magnetization 

 Free energy of the ion-electron system (eV)
  ---------------------------------------------------
  alpha Z        PSCENC =       892.99476195
  Ewald energy   TEWEN  =    -18221.58290915
  -Hartree energ DENC   =     -7568.46176089
  -exchange      EXHF   =         0.00000000
  -V(xc)+E(xc)   XCENC  =       964.24586098
  PAW double counting   =     23310.21767816   -24384.64476457
  entropy T*S    EENTRO =        -0.00000000
  eigenvalues    EBANDS =     -3002.39331289
  atomic energy  EATOM  =     26580.56019858
  Solvation  Ediel_sol  =         0.00000000
  ---------------------------------------------------
  free energy    TOTEN  =     -1429.06424783 eV

  energy without entropy =    -1429.06424783  energy(sigma->0) =    -1429.06424783


--------------------------------------------------------------------------------------------------------




 average (electrostatic) potential at core
  the test charge radii are     1.1312  1.1541  1.0178
  (the norm of the test charge is              1.0000)
       1 -55.5629       2 -55.5629       3 -55.5629       4 -55.5629       5 -55.5629
       6 -55.5629       7 -55.5629       8 -55.5629       9-101.4073      10-101.4073
      11-101.4073      12-101.4073      13-101.4073      14-101.4073      15-101.4073
      16-101.4073      17 -68.9338      18 -68.9338      19 -68.9338      20 -68.9338
      21 -68.9338      22 -68.9338      23 -68.9338      24 -68.9338      25 -68.9477
      26 -68.9477      27 -68.9477      28 -68.9477      29 -68.9477      30 -68.9477
      31 -68.9477      32 -68.9477      33 -68.9338      34 -68.9338      35 -68.9338
      36 -68.9338      37 -68.9338      38 -68.9338      39 -68.9338      40 -68.9338



 E-fermi :   1.0469     XC(G=0):  -8.0365     alpha+bet : -7.0048


 k-point     1 :       0.0000    0.0000    0.0000
  band No.  band energies     occupation 
      1     -21.0596      2.00000
      2     -21.0586      2.00000
      3     -21.0586      2.00000
      4     -21.0585      2.00000
      5     -21.0577      2.00000
      6     -21.0576      2.00000
      7     -21.0576      2.00000
      8     -21.0563      2.00000
      9     -16.3061      2.00000
     10     -16.3043      2.00000
     11     -16.3043      2.00000
     12     -16.2983      2.00000
     13     -16.2983      2.00000
     14     -16.2721      2.00000
     15     -16.2642      2.00000
     16     -16.2642      2.00000
     17     -16.2270      2.00000
     18     -16.2262      2.00000
     19     -16.2262      2.00000
     20     -16.1804      2.00000
     21     -16.1800      2.00000
     22     -16.1800      2.00000
     23     -16.1776      2.00000
     24     -16.1772      2.00000
     25     -16.0838      2.00000
     26     -16.0835      2.00000
     27     -16.0831      2.00000
     28     -16.0831      2.00000
     29     -16.0829      2.00000
     30     -16.0829      2.00000
     31     -16.0827      2.00000
     32     -16.0827      2.00000
     33     -16.0827      2.00000
     34     -16.0827      2.00000
     35     -16.0821      2.00000
     36     -16.0821      2.00000
     37     -16.0821      2.00000
     38     -16.0821      2.00000
     39     -16.0819      2.00000
     40     -16.0819      2.00000
     41     -16.0819      2.00000
     42     -16.0819      2.00000
     43     -16.0816      2.00000
     44     -16.0815      2.00000
     45     -16.0808      2.00000
     46     -16.0808      2.00000
     47     -16.0807      2.00000
     48     -16.0807      2.00000
     49     -14.3891      2.00000
     50     -14.1649      2.00000
     51     -14.1649      2.00000
     52     -14.1553      2.00000
     53     -14.0078      2.00000
     54     -14.0078      2.00000
     55     -14.0066      2.00000
     56     -14.0033      2.00000
     57     -13.9902      2.00000
     58     -13.9902      2.00000
     59     -13.9883      2.00000
     60     -13.9883      2.00000
     61     -13.9876      2.00000
     62     -13.9876      2.00000
     63     -13.9835      2.00000
     64     -13.9835      2.00000
     65     -13.9149      2.00000
     66     -13.9017      2.00000
     67     -13.9017      2.00000
     68     -13.6354      2.00000
     69     -13.6346      2.00000
     70     -13.6342      2.00000
     71     -13.6330      2.00000
     72     -13.6330      2.00000
     73      -8.2561      2.00000
     74      -7.6552      2.00000
     75      -7.6552      2.00000
     76      -7.6228      2.00000
     77      -7.4527      2.00000
     78      -7.4527      2.00000
     79      -7.4402      2.00000
     80      -7.4355      2.00000
     81      -7.4355      2.00000
     82      -7.4274      2.00000
     83      -7.4274      2.00000
     84      -7.4165      2.00000
     85      -7.4165      2.00000
     86      -7.4154      2.00000
     87      -7.4154      2.00000
     88      -7.4106      2.00000
     89      -7.4030      2.00000
     90      -7.4030      2.00000
     91      -7.4030      2.00000
     92      -7.4030      2.00000
     93      -7.3974      2.00000
     94      -7.3974      2.00000
     95      -7.3936      2.00000
     96      -7.3925      2.00000
     97      -7.3925      2.00000
     98      -7.3883      2.00000
     99      -7.3883      2.00000
    100      -7.3875      2.00000
    101      -7.0094      2.00000
    102      -6.9725      2.00000
    103      -6.9725      2.00000
    104      -6.2174      2.00000
    105      -3.4380      2.00000
    106      -3.4026      2.00000
    107      -3.4026      2.00000
    108      -3.3470      2.00000
    109      -3.3470      2.00000
    110      -3.3061      2.00000
    111      -3.3061      2.00000
    112      -3.3040      2.00000
    113      -3.3040      2.00000
    114      -3.2011      2.00000
    115      -3.1511      2.00000
    116      -3.1511      2.00000
    117      -2.1473      2.00000
    118      -2.1473      2.00000
    119      -2.1360      2.00000
    120      -1.9478      2.00000
    121      -1.9478      2.00000
    122      -1.9367      2.00000
    123      -1.8988      2.00000
    124      -1.8988      2.00000
    125      -1.8704      2.00000
    126      -1.5592      2.00000
    127      -1.5592      2.00000
    128      -1.5399      2.00000
    129      -1.5399      2.00000
    130      -1.5147      2.00000
    131      -1.5147      2.00000
    132      -1.4687      2.00000
    133      -1.4687      2.00000
    134      -1.4681      2.00000
    135      -1.4681      2.00000
    136      -1.4514      2.00000
    137      -1.4514      2.00000
    138      -1.3938      2.00000
    139      -1.3938      2.00000
    140      -1.3805      2.00000
    141      -1.3802      2.00000
    142      -1.3802      2.00000
    143      -1.3765      2.00000
    144      -1.3765      2.00000
    145      -1.3552      2.00000
    146      -1.3552      2.00000
    147      -1.3409      2.00000
    148      -1.3339      2.00000
    149      -1.3272      2.00000
    150      -1.3174      2.00000
    151      -1.3174      2.00000
    152      -1.2464      2.00000
    153      -1.2464      2.00000
    154      -1.2393      2.00000
    155      -1.2370      2.00000
    156      -1.2370      2.00000
    157      -1.2365      2.00000
    158      -1.2365      2.00000
    159      -1.2336      2.00000
    160      -1.2336      2.00000
    161      -1.1250      2.00000
    162      -1.1154      2.00000
    163      -1.1154      2.00000
    164      -0.7892      2.00000
    165      -0.7866      2.00000
    166      -0.7775      2.00000
    167      -0.7775      2.00000
    168      -0.7596      2.00000
    169      -0.7596      2.00000
    170      -0.5020      2.00000
[...]
 total charge-density along one line

 pseudopotential strength for first ion, spin component:           1
 18.092  -4.736  -0.000  -0.000   0.000   0.000   0.000  -0.000
 -4.736   1.249   0.000   0.000  -0.000  -0.000  -0.000   0.000
 -0.000   0.000   2.313   0.000  -0.000  -2.778  -0.000   0.000
 -0.000   0.000   0.000   2.314   0.000  -0.000  -2.778  -0.000
  0.000  -0.000  -0.000   0.000   2.315   0.000  -0.000  -2.780
  0.000  -0.000  -2.778  -0.000   0.000   3.306   0.000  -0.000
  0.000  -0.000  -0.000  -2.778  -0.000   0.000   3.306   0.000
 -0.000   0.000   0.000  -0.000  -2.780  -0.000   0.000   3.308
 -0.000   0.000  -0.000   0.000  -0.000   0.000  -0.000   0.000
  0.000  -0.000  -0.000  -0.000   0.000   0.000   0.000  -0.000
 -0.000   0.000   0.000  -0.000   0.000  -0.000   0.000  -0.000
  0.000  -0.000   0.000  -0.000  -0.000  -0.000   0.000   0.000
  0.001  -0.000   0.000  -0.000  -0.000  -0.000   0.000   0.000
 total augmentation occupancy for first ion, spin component:           1
  1.905  -0.151   0.000   0.000   0.000   0.000   0.000   0.000  -0.000  -0.000  -0.000  -0.000   0.001
 -0.151   0.080   0.000   0.000   0.000   0.000   0.000   0.000   0.000   0.000   0.001  -0.000  -0.004
  0.000   0.000   2.011   0.000   0.000  -0.001   0.000   0.000  -0.000  -0.000   0.000   0.000  -0.000
  0.000   0.000   0.000   2.011   0.000   0.000  -0.001   0.000  -0.000   0.000   0.000  -0.000  -0.000
  0.000   0.000   0.000   0.000   2.016   0.000   0.000   0.002   0.000   0.000  -0.000  -0.000   0.000
  0.000   0.000  -0.001   0.000   0.000   0.006   0.000   0.000   0.000   0.000   0.000  -0.000   0.000
  0.000   0.000   0.000  -0.001   0.000   0.000   0.005   0.000   0.000  -0.000   0.000  -0.000   0.000
  0.000   0.000   0.000   0.000   0.002   0.000   0.000   0.004   0.000   0.000   0.000   0.000  -0.000
 -0.000   0.000  -0.000  -0.000   0.000   0.000   0.000   0.000   0.003  -0.000  -0.000  -0.000   0.000
 -0.000   0.000  -0.000   0.000   0.000   0.000  -0.000   0.000  -0.000   0.005  -0.000  -0.000   0.000
 -0.000   0.001   0.000   0.000  -0.000   0.000   0.000   0.000  -0.000  -0.000   0.002  -0.000  -0.001
 -0.000  -0.000   0.000  -0.000  -0.000  -0.000  -0.000   0.000  -0.000  -0.000  -0.000   0.002   0.000
  0.001  -0.004  -0.000  -0.000   0.000   0.000   0.000  -0.000   0.000   0.000  -0.001   0.000   0.002


------------------------ aborting loop because EDIFF is reached ----------------------------------------





 total charge     

# of ion       s       p       d       tot
------------------------------------------
    1        1.781   4.717   0.011   6.509
    2        1.781   4.717   0.011   6.509
    3        1.781   4.717   0.011   6.509
    4        1.781   4.717   0.011   6.509
    5        1.781   4.717   0.011   6.509
    6        1.781   4.717   0.011   6.509
    7        1.781   4.717   0.011   6.509
    8        1.781   4.717   0.011   6.509
    9        1.555   0.446   9.840  11.842
   10        1.555   0.446   9.840  11.842
   11        1.555   0.446   9.840  11.842
   12        1.555   0.446   9.840  11.842
   13        1.555   0.446   9.840  11.842
   14        1.555   0.446   9.840  11.842
   15        1.555   0.446   9.840  11.842
   16        1.555   0.446   9.840  11.842
   17        1.613   3.310   0.007   4.930
   18        1.613   3.310   0.007   4.930
   19        1.613   3.310   0.007   4.930
   20        1.613   3.310   0.007   4.930
   21        1.613   3.310   0.007   4.930
   22        1.613   3.310   0.007   4.930
   23        1.613   3.310   0.007   4.930
   24        1.613   3.310   0.007   4.930
   25        1.615   3.288   0.008   4.911
   26        1.615   3.288   0.008   4.911
   27        1.615   3.288   0.008   4.911
   28        1.615   3.288   0.008   4.911
   29        1.615   3.288   0.008   4.911
   30        1.615   3.288   0.008   4.911
   31        1.615   3.288   0.008   4.911
   32        1.615   3.288   0.008   4.911
   33        1.617   3.266   0.008   4.890
   34        1.617   3.266   0.008   4.890
   35        1.617   3.266   0.008   4.890
   36        1.617   3.266   0.008   4.890
   37        1.617   3.266   0.008   4.890
   38        1.617   3.266   0.008   4.890
   39        1.617   3.266   0.008   4.890
   40        1.617   3.266   0.008   4.890
--------------------------------------------------
tot         65.453 120.215  78.986 264.654

    CHARGE:  cpu time    0.4257: real time    0.4257
    FORLOC:  cpu time    0.0111: real time    0.0111
    FORNL :  cpu time    1.5821: real time    1.5823
    STRESS:  cpu time   40.1598: real time   40.1615
    FORCOR:  cpu time    0.2401: real time    0.2401
    FORHAR:  cpu time    0.0275: real time    0.0275
    MIXING:  cpu time    0.0020: real time    0.0020
    OFIELD:  cpu time    0.0000: real time    0.0000

  FORCE on cell =-STRESS in cart. coord.  units (eV):
  Direction    XX          YY          ZZ          XY          YZ          ZX
  --------------------------------------------------------------------------------------
  Alpha Z   892.99476   892.99476   892.99476
  Ewald   -6098.93213 -6098.93213 -6023.80533    -0.00000     0.00000    -0.00000
  Hartree  2514.01985  2514.01985  2540.42199    -0.00000    -0.00000    -0.00000
  E(xc)   -1478.95662 -1478.64331 -1478.57706    -0.00000    -0.00000    -0.00000
  Local   -2949.31717 -2949.31717 -3050.86669     0.00000     0.00000     0.00000
  n-local  1808.18826  1805.72679  1808.24389     0.00000    -0.00000    -0.00000
  augment   811.47086   811.47086   811.41046     0.00000    -0.00006    -0.00006
  Kinetic  4497.97183  4511.07723  4505.42358    -0.00000    -0.00001    -0.00000
  Fock        0.00000     0.00000     0.00000     0.00000     0.00000     0.00000
  -------------------------------------------------------------------------------------
  Total       2.91827     2.91827     5.24560     0.00000     0.00000     0.00000
  in kB       2.89300     2.89300     5.20017     0.00000     0.00000     0.00000
  external pressure =        3.66 kB  Pullay stress =        0.00 kB


 VOLUME and BASIS-vectors are now :
 -----------------------------------------------------------------------------
  energy-cutoff  :      300.00
  volume of cell :     1616.17
      direct lattice vectors                 reciprocal lattice vectors
    11.735352000  0.000000000  0.000000000     0.085212612  0.000000000  0.000000000
     0.000000000 11.735352000  0.000000000     0.000000000  0.085212612  0.000000000
     0.000000000  0.000000000 11.735352000     0.000000000  0.000000000  0.085212612

  length of vectors
    11.735352000 11.735352000 11.735352000     0.085212612  0.085212612  0.085212612


 FORCES acting on ions
    electron-ion (+dipol)            ewald-force                    non-local-force                 convergence-correction
 -----------------------------------------------------------------------------------------------
   0.264E-13 -.577E-12 -.712E-12   -.489E-14 -.311E-13 0.000E+00   0.000E+00 0.000E+00 0.110E-24   0.137E-12 0.659E-13 0.131E-12
   0.733E-13 0.753E-12 -.884E-12   -.111E-13 -.311E-13 0.711E-14   0.000E+00 0.000E+00 0.515E-25   0.111E-12 0.100E-12 -.936E-13
   0.269E-13 0.463E-12 -.600E-12   -.492E-13 -.888E-14 0.533E-14   -.517E-25 0.000E+00 -.197E-24   0.876E-13 -.142E-13 0.140E-12
   0.830E-14 -.957E-12 -.967E-12   -.706E-13 -.160E-13 0.124E-13   0.000E+00 0.103E-24 0.261E-24   0.639E-13 -.490E-13 -.102E-12
   -.405E-13 0.290E-11 -.268E-11   -.579E-13 -.711E-14 0.355E-14   -.517E-25 0.000E+00 -.186E-24   -.848E-13 0.869E-13 0.168E-12
   -.351E-13 0.185E-11 0.699E-12   -.905E-14 -.711E-14 0.142E-13   0.000E+00 0.000E+00 0.520E-25   -.595E-13 0.139E-12 -.137E-12
   0.768E-14 -.129E-11 0.323E-11   -.645E-14 -.426E-13 0.000E+00   0.000E+00 0.000E+00 -.193E-24   -.325E-13 -.358E-13 0.158E-12
   -.383E-14 -.160E-11 -.544E-11   0.660E-15 -.426E-13 0.711E-14   0.000E+00 0.000E+00 -.151E-24   -.936E-14 -.894E-13 -.124E-12
   0.602E-14 0.162E-13 0.101E-13   -.187E-13 0.653E-13 0.353E-13   0.000E+00 -.165E-23 0.593E-25   -.713E-13 0.155E-12 -.316E-12
   0.615E-14 -.266E-13 0.114E-11   -.355E-14 0.524E-13 0.370E-13   0.000E+00 -.165E-23 0.258E-23   -.131E-12 0.175E-12 -.224E-13
   -.173E-13 0.117E-11 -.725E-14   0.675E-13 -.160E-13 0.335E-13   0.000E+00 0.331E-23 0.438E-24   -.113E-12 -.187E-12 -.381E-12
   -.334E-14 0.116E-11 0.113E-11   0.853E-13 0.000E+00 0.352E-13   -.331E-23 0.248E-23 -.163E-23   -.161E-12 -.201E-12 0.390E-13
   0.115E-11 -.163E-14 0.626E-11   0.100E-12 0.155E-13 0.317E-13   0.000E+00 -.331E-23 -.537E-23   -.953E-14 0.240E-12 -.268E-12
   0.114E-11 -.110E-13 -.769E-11   0.853E-13 -.258E-13 0.618E-13   -.331E-23 0.248E-23 -.128E-23   0.532E-13 0.225E-12 -.911E-13
   0.248E-11 -.319E-11 0.188E-11   0.711E-14 0.657E-13 0.300E-13   0.000E+00 -.165E-23 0.499E-23   0.497E-13 -.300E-12 -.356E-12
   0.140E-11 -.155E-11 -.142E-11   0.000E+00 0.835E-13 0.601E-13   0.000E+00 0.000E+00 -.783E-24   0.101E-12 -.295E-12 -.166E-13
   0.148E+02 -.618E-11 -.128E-07   -.149E+02 -.124E-13 -.102E-13   0.553E-01 0.000E+00 -.425E-24   0.913E-05 -.279E-13 -.673E-13
   0.148E+02 -.428E-11 -.128E-07   -.149E+02 0.000E+00 -.581E-14   0.553E-01 0.000E+00 -.103E-24   0.913E-05 -.207E-13 -.958E-14
   -.148E+02 0.295E-12 0.128E-07   0.149E+02 -.151E-13 -.120E-13   -.553E-01 0.000E+00 0.635E-25   -.913E-05 -.215E-13 -.939E-13
   -.148E+02 0.186E-12 0.128E-07   0.149E+02 0.000E+00 -.755E-14   -.553E-01 0.000E+00 0.533E-25   -.913E-05 -.295E-13 0.842E-14
   -.148E+02 0.334E-11 0.128E-07   0.149E+02 -.115E-13 -.111E-13   -.553E-01 0.000E+00 0.142E-24   -.913E-05 0.990E-13 -.523E-13
   -.148E+02 0.158E-12 0.128E-07   0.149E+02 -.284E-13 -.666E-14   -.553E-01 0.000E+00 0.595E-27   -.913E-05 0.990E-13 -.362E-13
   0.148E+02 0.354E-12 -.128E-07   -.149E+02 0.977E-14 -.111E-13   0.553E-01 0.000E+00 -.338E-24   0.913E-05 -.144E-12 -.746E-13
   0.148E+02 -.508E-12 -.128E-07   -.149E+02 0.249E-13 -.669E-14   0.553E-01 0.517E-25 -.479E-24   0.913E-05 -.142E-12 -.111E-13
   0.351E-14 -.552E-14 0.178E-13   -.204E-13 -.666E-14 -.284E-13   0.000E+00 0.000E+00 0.306E-24   -.465E-13 0.105E-12 0.153E-12
   0.767E-15 0.239E-14 0.715E-13   -.311E-13 -.799E-14 -.249E-13   0.000E+00 0.000E+00 0.782E-24   -.216E-13 0.850E-13 -.241E-13
   0.165E-14 0.123E-12 0.364E-13   -.213E-13 -.147E-13 -.284E-13   0.000E+00 0.000E+00 0.448E-24   -.615E-13 -.910E-13 0.161E-12
   -.495E-15 0.824E-13 0.840E-14   -.711E-14 -.147E-13 -.249E-13   0.000E+00 0.000E+00 -.346E-24   -.515E-13 -.717E-13 -.356E-13
   0.106E-12 -.942E-14 -.711E-11   -.533E-14 -.220E-13 -.249E-13   0.000E+00 0.000E+00 -.408E-24   0.443E-13 0.144E-12 0.134E-12
   0.108E-12 -.880E-15 0.197E-11   -.160E-13 -.144E-13 -.249E-13   0.000E+00 0.000E+00 0.516E-24   0.185E-13 0.123E-12 -.486E-14
   0.348E-12 -.187E-11 -.421E-11   0.355E-14 -.115E-13 -.213E-13   0.000E+00 0.000E+00 0.286E-24   0.591E-13 -.137E-12 0.138E-12
   0.576E-12 -.440E-12 -.250E-12   -.107E-13 -.124E-13 -.213E-13   0.000E+00 0.000E+00 0.827E-24   0.492E-13 -.116E-12 0.503E-14
   0.530E-13 -.148E+02 0.128E-07   -.186E-13 0.149E+02 -.192E-13   0.827E-24 -.553E-01 0.173E-24   -.408E-13 -.913E-05 -.650E-13
   0.476E-13 -.148E+02 0.128E-07   -.186E-13 0.149E+02 -.132E-13   0.827E-24 -.553E-01 0.347E-24   -.623E-13 -.913E-05 -.192E-13
   -.391E-13 0.148E+02 -.128E-07   -.297E-13 -.149E+02 -.121E-13   0.000E+00 0.553E-01 -.616E-24   0.121E-12 0.913E-05 -.104E-12
   -.365E-13 0.148E+02 -.128E-07   -.155E-13 -.149E+02 -.612E-14   0.827E-24 0.553E-01 0.315E-23   0.910E-13 0.913E-05 -.280E-15
   -.730E-14 0.148E+02 -.128E-07   0.107E-13 -.149E+02 -.118E-13   0.000E+00 0.553E-01 0.292E-23   -.975E-14 0.913E-05 -.487E-13
   0.308E-15 0.148E+02 -.128E-07   -.355E-13 -.149E+02 -.578E-14   0.931E-24 0.553E-01 0.334E-23   0.949E-14 0.913E-05 -.478E-13
   0.867E-13 -.148E+02 0.128E-07   -.201E-13 0.149E+02 -.187E-13   0.827E-24 -.553E-01 -.331E-23   -.172E-12 -.913E-05 -.894E-13
   0.808E-13 -.148E+02 0.128E-07   -.200E-13 0.149E+02 -.127E-13   0.827E-24 -.553E-01 0.209E-24   -.144E-12 -.913E-05 0.315E-15
 -----------------------------------------------------------------------------------------------
   0.832E-11 -.217E-10 -.464E-10   0.107E-13 -.480E-13 0.459E-14   0.694E-17 0.208E-16 0.630E-23   -.335E-12 -.151E-12 -.146E-11


 POSITION                                       TOTAL-FORCE (eV/Angst)
 -----------------------------------------------------------------------------------
      2.93384      2.93384      2.93384        -0.000000     -0.000000      0.000000
      2.93384      2.93384      8.80151        -0.000000      0.000000      0.000000
      2.93384      8.80151      2.93384        -0.000000     -0.000000      0.000000
      2.93384      8.80151      8.80151        -0.000000     -0.000000      0.000000
      8.80151      2.93384      2.93384        -0.000000      0.000000      0.000000
      8.80151      2.93384      8.80151        -0.000000     -0.000000      0.000000
      8.80151      8.80151      2.93384        -0.000000      0.000000      0.000000
      8.80151      8.80151      8.80151        -0.000000      0.000000      0.000000
      0.00000      0.00000      0.00000        -0.000000     -0.000000      0.000000
      0.00000      0.00000      5.86768        -0.000000     -0.000000      0.000000
      0.00000      5.86768      0.00000        -0.000000      0.000000      0.000000
      0.00000      5.86768      5.86768        -0.000000      0.000000      0.000000
      5.86768      0.00000      0.00000        -0.000000     -0.000000      0.000000
      5.86768      0.00000      5.86768        -0.000000      0.000000      0.000000
      5.86768      5.86768      0.00000        -0.000000     -0.000000      0.000000
      5.86768      5.86768      5.86768        -0.000000     -0.000000      0.000000
     11.47131      2.93384      0.00000        -0.062756      0.000000      0.000000
     11.47131      2.93384      5.86768        -0.062756      0.000000      0.000000
      0.26405      8.80151      0.00000         0.062756      0.000000     -0.000000
      0.26405      8.80151      5.86768         0.062756      0.000000     -0.000000
      6.13172      2.93384      0.00000         0.062756     -0.000000     -0.000000
      6.13172      2.93384      5.86768         0.062756     -0.000000      0.000000
      5.60363      8.80151      0.00000        -0.062756      0.000000     -0.000000
      5.60363      8.80151      5.86768        -0.062756     -0.000000      0.000000
      0.00000      0.00000      2.93384        -0.000000      0.000000      0.000000
      0.00000      0.00000      8.80151        -0.000000      0.000000      0.000000
      0.00000      5.86768      2.93384        -0.000000      0.000000      0.000000
      0.00000      5.86768      8.80151        -0.000000      0.000000      0.000000
      5.86768      0.00000      2.93384        -0.000000     -0.000000      0.000000
      5.86768      0.00000      8.80151        -0.000000     -0.000000      0.000000
      5.86768      5.86768      2.93384        -0.000000     -0.000000      0.000000
      5.86768      5.86768      8.80151        -0.000000      0.000000      0.000000
      2.93384      0.26405      0.00000        -0.000000      0.062756     -0.000000
      2.93384      0.26405      5.86768        -0.000000      0.062756     -0.000000
      2.93384      5.60363      0.00000        -0.000000     -0.062756     -0.000000
      2.93384      5.60363      5.86768        -0.000000     -0.062756     -0.000000
      8.80151     11.47131      0.00000        -0.000000     -0.062756      0.000000
      8.80151     11.47131      5.86768        -0.000000     -0.062756     -0.000000
      8.80151      6.13172      0.00000        -0.000000      0.062756      0.000000
      8.80151      6.13172      5.86768        -0.000000      0.062756     -0.000000
 -----------------------------------------------------------------------------------
    total drift:                                0.000000     -0.000000     -0.000000


--------------------------------------------------------------------------------------------------------



  FREE ENERGIE OF THE ION-ELECTRON SYSTEM (eV)
  ---------------------------------------------------
  free  energy   TOTEN  =     -1429.06424783 eV

  energy  without entropy=    -1429.06424783  energy(sigma->0) =    -1429.06424783



--------------------------------------------------------------------------------------------------------


    POTLOK:  cpu time    1.4346: real time    1.4346


--------------------------------------------------------------------------------------------------------


 stress matrix after NEB project (eV)
      2.91827      0.00000      0.00000
      0.00000      2.91827      0.00000
     -0.00000      0.00000      5.24560
  FORCES: max atom, RMS     0.062756    0.039691
  FORCE total and by dimension    0.251025    0.062756
  Stress total and by dimension    6.674500    5.245603
     LOOP+:  cpu time  364.0804: real time  364.8722
    4ORBIT:  cpu time    0.0000: real time    0.0000



 total charge     

# of ion       s       p       d       tot
------------------------------------------
    1        1.781   4.717   0.011   6.509
    2        1.781   4.717   0.011   6.509
    3        1.781   4.717   0.011   6.509
    4        1.781   4.717   0.011   6.509
    5        1.781   4.717   0.011   6.509
    6        1.781   4.717   0.011   6.509
    7        1.781   4.717   0.011   6.509
    8        1.781   4.717   0.011   6.509
    9        1.555   0.446   9.840  11.842
   10        1.555   0.446   9.840  11.842
   11        1.555   0.446   9.840  11.842
   12        1.555   0.446   9.840  11.842
   13        1.555   0.446   9.840  11.842
   14        1.555   0.446   9.840  11.842
   15        1.555   0.446   9.840  11.842
   16        1.555   0.446   9.840  11.842
   17        1.613   3.310   0.007   4.930
   18        1.613   3.310   0.007   4.930
   19        1.613   3.310   0.007   4.930
   20        1.613   3.310   0.007   4.930
   21        1.613   3.310   0.007   4.930
   22        1.613   3.310   0.007   4.930
   23        1.613   3.310   0.007   4.930
   24        1.613   3.310   0.007   4.930
   25        1.615   3.288   0.008   4.911
   26        1.615   3.288   0.008   4.911
   27        1.615   3.288   0.008   4.911
   28        1.615   3.288   0.008   4.911
   29        1.615   3.288   0.008   4.911
   30        1.615   3.288   0.008   4.911
   31        1.615   3.288   0.008   4.911
   32        1.615   3.288   0.008   4.911
   33        1.617   3.266   0.008   4.890
   34        1.617   3.266   0.008   4.890
   35        1.617   3.266   0.008   4.890
   36        1.617   3.266   0.008   4.890
   37        1.617   3.266   0.008   4.890
   38        1.617   3.266   0.008   4.890
   39        1.617   3.266   0.008   4.890
   40        1.617   3.266   0.008   4.890
--------------------------------------------------
tot         65.453 120.215  78.986 264.654


 total amount of memory used by VASP MPI-rank0    58977. kBytes
=======================================================================

   base      :      30000. kBytes
   nonlr-proj:       6605. kBytes
   fftplans  :       8423. kBytes
   grid      :       7465. kBytes
   one-center:         77. kBytes
   wavefun   :       6407. kBytes

  
  
 General timing and accounting informations for this job:
 ========================================================
  
                  Total CPU time used (sec):      382.858
                            User time (sec):      379.254
                          System time (sec):        3.604
                         Elapsed time (sec):      384.617
  
                   Maximum memory used (kb):      127528.
                   Average memory used (kb):           0.
  
                          Minor page faults:       256924
                          Major page faults:            1
                 Voluntary context switches:         1740
