 running on   64 total cores
 distrk:  each k-point on   64 cores,    1 groups
 distr:  one band on    8 cores,    8 groups
 using from now: INCAR     
 vasp.5.4.4.18Apr17-6-g9f103f2a35 (build Jun 22 2020 09:27:21) complex           
 POSCAR found type information on POSCAR  Cs Pb Br
 POSCAR found :  3 types and      40 ions
 scaLAPACK will be used
 LDA part: xc-table for Pade appr. of Perdew
 POSCAR found type information on POSCAR  Cs Pb Br
 POSCAR found :  3 types and      40 ions
 POSCAR, INCAR and KPOINTS ok, starting setup
 FFT: planning ...
 WAVECAR not read
 entering main loop
       N       E                     dE             d eps       ncg     rms          rms(c)
DAV:   1     0.134333397882E+04    0.13433E+04   -0.11293E+05  2688   0.958E+02
DAV:   2    -0.112809780857E+04   -0.24714E+04   -0.23783E+04  3128   0.295E+02
DAV:   3    -0.149507006081E+04   -0.36697E+03   -0.36476E+03  3496   0.135E+02
DAV:   4    -0.150728614958E+04   -0.12216E+02   -0.12168E+02  3072   0.321E+01
DAV:   5    -0.150787647073E+04   -0.59032E+00   -0.59001E+00  3464   0.548E+00    0.106E+01
DAV:   6    -0.142930202536E+04    0.78574E+02   -0.22540E+01  3360   0.279E+01    0.749E+00
DAV:   7    -0.142880547400E+04    0.49655E+00   -0.75086E+00  3216   0.487E+00    0.362E+00
DAV:   8    -0.142897944004E+04   -0.17397E+00   -0.37152E-01  3144   0.175E+00    0.209E+00
DAV:   9    -0.142905947239E+04   -0.80032E-01   -0.14963E-01  2824   0.118E+00    0.476E-01
DAV:  10    -0.142906057105E+04   -0.10987E-02   -0.94414E-03  3608   0.349E-01    0.273E-01
DAV:  11    -0.142906335584E+04   -0.27848E-02   -0.25261E-03  2984   0.160E-01    0.987E-02
DAV:  12    -0.142906420451E+04   -0.84866E-03   -0.10300E-03  2896   0.995E-02    0.418E-02
DAV:  13    -0.142906424334E+04   -0.38828E-04   -0.99528E-05  3256   0.248E-02    0.155E-02
DAV:  14    -0.142906426927E+04   -0.25933E-04   -0.10228E-05  2856   0.642E-03    0.768E-03
DAV:  15    -0.142906425843E+04    0.10835E-04   -0.90273E-07  1792   0.358E-03    0.115E-03
DAV:  16    -0.142906425356E+04    0.48729E-05   -0.41595E-07  1696   0.183E-03    0.659E-04
DAV:  17    -0.142906424852E+04    0.50467E-05   -0.95074E-08  1648   0.137E-03    0.242E-04
DAV:  18    -0.142906424717E+04    0.13475E-05   -0.52049E-08  1656   0.661E-04    0.176E-04
DAV:  19    -0.142906424783E+04   -0.66266E-06   -0.16506E-08  1648   0.542E-04
   1 F= -.14290642E+04 E0= -.14290642E+04  d E =-.441526E-36
Application 1868163 resources: utime ~24356s, stime ~235s, Rss ~135584, inblocks ~1334, outblocks ~271872
