<?xml version="1.0" encoding="ISO-8859-1"?>
<modeling>
 <generator>
  <i name="program" type="string">vasp </i>
  <i name="version" type="string">5.4.4.18Apr17-6-g9f103f2a35  </i>
  <i name="subversion" type="string">(build Jun 22 2020 09:27:21) complex            parallel </i>
  <i name="platform" type="string">tx2_gcc-7.3_libsci-18.07_cray-fftw-3.3.8 </i>
  <i name="date" type="string">2021 09 22 </i>
  <i name="time" type="string">08:17:57 </i>
 </generator>
 <incar>
  <i type="string" name="SYSTEM"> CsPbBr3 cubic bulk</i>
  <i type="string" name="PREC">accurate</i>
  <i type="string" name="ALGO"> Normal   ! Electronic minimisation algo</i>
  <i type="logical" name="ADDGRID"> T  </i>
  <i type="int" name="NELM">   200</i>
  <i type="int" name="IBRION">     2</i>
  <i name="EDIFF">      0.00000100</i>
  <i name="EDIFFG">     -0.01000000</i>
  <i type="int" name="NSW">     0</i>
  <i type="int" name="ISIF">     3</i>
  <i type="int" name="ISYM">     2</i>
  <i name="ENCUT">    300.00000000</i>
  <i name="POTIM">      0.50000000</i>
  <i type="string" name="LREAL"> AUTO</i>
  <i type="int" name="ISMEAR">     0</i>
  <i name="SIGMA">      0.01000000</i>
  <i name="PSTRESS">      0.00000000</i>
  <i type="logical" name="LWAVE"> F  </i>
  <i type="logical" name="LCHARG"> T  </i>
  <i type="logical" name="LVHAR"> T  </i>
  <i type="int" name="LORBIT">    10</i>
  <i type="logical" name="LASPH"> T  </i>
  <v type="int" name="KPOINT_BSE">    -1     0     0     0</v>
  <i type="int" name="NELM">   200</i>
  <i type="string" name="METAGGA"> SCAN       ! PBE exchange-correlation</i>
  <i type="logical" name="LASPH"> T  </i>
 </incar>
 <structure name="primitive_cell" >
  <crystal>
   <varray name="basis" >
    <v>       5.86767600      -5.86767600       0.00000000 </v>
    <v>      -5.86767600      -5.86767600       0.00000000 </v>
    <v>       0.00000000       0.00000000      -5.86767600 </v>
   </varray>
   <i name="volume">    404.04372918 </i>
   <varray name="rec_basis" >
    <v>       0.08521261      -0.08521261       0.00000000 </v>
    <v>      -0.08521261      -0.08521261      -0.00000000 </v>
    <v>       0.00000000      -0.00000000      -0.17042522 </v>
   </varray>
  </crystal>
  <varray name="positions" >
   <v>       0.00000000      -0.50000000      -0.50000000 </v>
   <v>       0.22750000      -0.27250000       0.00000000 </v>
   <v>      -0.22750000       0.27250000       0.00000000 </v>
   <v>       0.00000000       0.00000000      -0.50000000 </v>
   <v>      -0.50000000      -0.50000000      -0.50000000 </v>
   <v>      -0.27250000      -0.22750000       0.00000000 </v>
   <v>       0.27250000       0.22750000       0.00000000 </v>
   <v>       0.00000000       0.00000000       0.00000000 </v>
   <v>      -0.50000000      -0.50000000       0.00000000 </v>
   <v>      -0.50000000       0.00000000      -0.50000000 </v>
  </varray>
 </structure>
 <varray name="primitive_index" >
  <v type="int" >        1 </v>
  <v type="int" >       33 </v>
  <v type="int" >       35 </v>
  <v type="int" >       25 </v>
  <v type="int" >       27 </v>
  <v type="int" >       17 </v>
  <v type="int" >       21 </v>
  <v type="int" >        9 </v>
  <v type="int" >       11 </v>
  <v type="int" >        3 </v>
 </varray>
 <kpoints>
  <generation param="Gamma">
   <v type="int" name="divisions">       2        2        2 </v>
   <v name="usershift">      0.00000000       0.00000000       0.00000000 </v>
   <v name="genvec1">      0.50000000       0.00000000       0.00000000 </v>
   <v name="genvec2">      0.00000000       0.50000000       0.00000000 </v>
   <v name="genvec3">      0.00000000       0.00000000       0.50000000 </v>
   <v name="shift">      0.00000000       0.00000000       0.00000000 </v>
  </generation>
  <varray name="kpointlist" >
   <v>       0.00000000       0.00000000       0.00000000 </v>
   <v>       0.50000000       0.00000000       0.00000000 </v>
   <v>       0.50000000       0.50000000       0.00000000 </v>
   <v>       0.00000000       0.00000000       0.50000000 </v>
   <v>       0.50000000       0.00000000       0.50000000 </v>
   <v>       0.50000000       0.50000000       0.50000000 </v>
  </varray>
  <varray name="weights" >
   <v>       0.12500000 </v>
   <v>       0.25000000 </v>
   <v>       0.12500000 </v>
   <v>       0.12500000 </v>
   <v>       0.25000000 </v>
   <v>       0.12500000 </v>
  </varray>
 </kpoints>
 <parameters>
  <separator name="general" >
   <i type="string" name="SYSTEM">CsPbBr3 cubic bulk</i>
   <i type="logical" name="LCOMPAT"> F  </i>
  </separator>
  <separator name="electronic" >
   <i type="string" name="PREC">accura</i>
   <i name="ENMAX">    300.00000000</i>
   <i name="ENAUG">    503.85200000</i>
   <i name="EDIFF">      0.00000100</i>
   <i type="int" name="IALGO">    38</i>
   <i type="int" name="IWAVPR">    10</i>
   <i type="int" name="NBANDS">   216</i>
   <i name="NELECT">    352.00000000</i>
   <i type="int" name="TURBO">     0</i>
   <i type="int" name="IRESTART">     0</i>
   <i type="int" name="NREBOOT">     0</i>
   <i type="int" name="NMIN">     0</i>
   <i name="EREF">      0.00000000</i>
   <separator name="electronic smearing" >
    <i type="int" name="ISMEAR">     0</i>
    <i name="SIGMA">      0.01000000</i>
    <i name="KSPACING">      0.50000000</i>
    <i type="logical" name="KGAMMA"> T  </i>
   </separator>
   <separator name="electronic projectors" >
    <i type="logical" name="LREAL"> T  </i>
    <v name="ROPT">     -0.00025000     -0.00025000     -0.00025000</v>
    <i type="int" name="LMAXPAW">  -100</i>
    <i type="int" name="LMAXMIX">     2</i>
    <i type="logical" name="NLSPLINE"> F  </i>
   </separator>
   <separator name="electronic startup" >
    <i type="int" name="ISTART">     0</i>
    <i type="int" name="ICHARG">     2</i>
    <i type="int" name="INIWAV">     1</i>
   </separator>
   <separator name="electronic spin" >
    <i type="int" name="ISPIN">     1</i>
    <i type="logical" name="LNONCOLLINEAR"> F  </i>
    <v name="MAGMOM">      1.00000000      1.00000000      1.00000000      1.00000000      1.00000000      1.00000000      1.00000000      1.00000000      1.00000000      1.00000000      1.00000000      1.00000000      1.00000000      1.00000000      1.00000000      1.00000000      1.00000000      1.00000000      1.00000000      1.00000000
      1.00000000      1.00000000      1.00000000      1.00000000      1.00000000      1.00000000      1.00000000      1.00000000      1.00000000      1.00000000      1.00000000      1.00000000      1.00000000      1.00000000      1.00000000      1.00000000      1.00000000      1.00000000      1.00000000      1.00000000
</v>
    <i name="NUPDOWN">     -1.00000000</i>
    <i type="logical" name="LSORBIT"> F  </i>
    <v name="SAXIS">      0.00000000      0.00000000      1.00000000</v>
    <i type="logical" name="LSPIRAL"> F  </i>
    <v name="QSPIRAL">      0.00000000      0.00000000      0.00000000</v>
    <i type="logical" name="LZEROZ"> F  </i>
   </separator>
   <separator name="electronic exchange-correlation" >
    <i type="logical" name="LASPH"> T  </i>
    <i type="logical" name="LMETAGGA"> F  </i>
   </separator>
   <separator name="electronic convergence" >
    <i type="int" name="NELM">   200</i>
    <i type="int" name="NELMDL">    -5</i>
    <i type="int" name="NELMIN">     2</i>
    <i name="ENINI">    300.00000000</i>
    <separator name="electronic convergence detail" >
     <i type="logical" name="LDIAG"> T  </i>
     <i type="logical" name="LSUBROT"> F  </i>
     <i name="WEIMIN">      0.00000000</i>
     <i name="EBREAK">      0.00000000</i>
     <i name="DEPER">      0.30000000</i>
     <i type="int" name="NRMM">     4</i>
     <i name="TIME">      0.40000000</i>
    </separator>
   </separator>
   <separator name="electronic mixer" >
    <i name="AMIX">      0.40000000</i>
    <i name="BMIX">      1.00000000</i>
    <i name="AMIN">      0.10000000</i>
    <i name="AMIX_MAG">      1.60000000</i>
    <i name="BMIX_MAG">      1.00000000</i>
    <separator name="electronic mixer details" >
     <i type="int" name="IMIX">     4</i>
     <i type="logical" name="MIXFIRST"> F  </i>
     <i type="int" name="MAXMIX">   -45</i>
     <i name="WC">    100.00000000</i>
     <i type="int" name="INIMIX">     1</i>
     <i type="int" name="MIXPRE">     1</i>
     <i type="int" name="MREMOVE">     5</i>
    </separator>
   </separator>
   <separator name="electronic dipolcorrection" >
    <i type="logical" name="LDIPOL"> F  </i>
    <i type="logical" name="LMONO"> F  </i>
    <i type="int" name="IDIPOL">     0</i>
    <i name="EPSILON">      1.00000000</i>
    <v name="DIPOL">   -100.00000000   -100.00000000   -100.00000000</v>
    <i name="EFIELD">      0.00000000</i>
   </separator>
  </separator>
  <separator name="grids" >
   <i type="int" name="NGX">    70</i>
   <i type="int" name="NGY">    70</i>
   <i type="int" name="NGZ">    70</i>
   <i type="int" name="NGXF">   140</i>
   <i type="int" name="NGYF">   140</i>
   <i type="int" name="NGZF">   140</i>
   <i type="logical" name="ADDGRID"> T  </i>
  </separator>
  <separator name="ionic" >
   <i type="int" name="NSW">     0</i>
   <i type="int" name="IBRION">    -1</i>
   <i type="int" name="MDALGO">     0</i>
   <i type="int" name="ISIF">     3</i>
   <i name="PSTRESS">      0.00000000</i>
   <i name="EDIFFG">     -0.01000000</i>
   <i type="int" name="NFREE">     1</i>
   <i name="POTIM">      0.50000000</i>
   <i name="SMASS">     -3.00000000</i>
   <i name="SCALEE">      1.00000000</i>
  </separator>
  <separator name="ionic md" >
   <i name="TEBEG">      0.00010000</i>
   <i name="TEEND">      0.00010000</i>
   <i type="int" name="NBLOCK">     1</i>
   <i type="int" name="KBLOCK">     1</i>
   <i type="int" name="NPACO">   256</i>
   <i name="APACO">     16.00000000</i>
  </separator>
  <separator name="symmetry" >
   <i type="int" name="ISYM">     2</i>
   <i name="SYMPREC">      0.00001000</i>
  </separator>
  <separator name="dos" >
   <i type="int" name="LORBIT">    10</i>
   <v name="RWIGS">     -1.00000000     -1.00000000     -1.00000000</v>
   <i type="int" name="NEDOS">   301</i>
   <i name="EMIN">     10.00000000</i>
   <i name="EMAX">    -10.00000000</i>
   <i name="EFERMI">      0.00000000</i>
  </separator>
  <separator name="writing" >
   <i type="int" name="NWRITE">     2</i>
   <i type="logical" name="LWAVE"> F  </i>
   <i type="logical" name="LDOWNSAMPLE"> F  </i>
   <i type="logical" name="LCHARG"> T  </i>
   <i type="logical" name="LPARD"> F  </i>
   <i type="logical" name="LVTOT"> F  </i>
   <i type="logical" name="LVHAR"> T  </i>
   <i type="logical" name="LELF"> F  </i>
   <i type="logical" name="LOPTICS"> F  </i>
   <v name="STM">      0.00000000      0.00000000      0.00000000      0.00000000      0.00000000      0.00000000      0.00000000</v>
  </separator>
  <separator name="performance" >
   <i type="int" name="NPAR">     8</i>
   <i type="int" name="NSIM">     4</i>
   <i type="int" name="NBLK">    -1</i>
   <i type="logical" name="LPLANE"> T  </i>
   <i type="logical" name="LSCALAPACK"> T  </i>
   <i type="logical" name="LSCAAWARE"> F  </i>
   <i type="logical" name="LSCALU"> F  </i>
   <i type="logical" name="LASYNC"> F  </i>
   <i type="logical" name="LORBITALREAL"> F  </i>
  </separator>
  <separator name="miscellaneous" >
   <i type="int" name="IDIOT">     3</i>
   <i type="int" name="ISPECIAL">     0</i>
   <i type="logical" name="LMUSIC"> F  </i>
   <v name="POMASS">    132.90000000    207.20000000     79.90400000</v>
   <v name="DARWINR">      0.00000000      0.00000000      0.00000000</v>
   <v name="DARWINV">      1.00000000      1.00000000      1.00000000</v>
   <i type="logical" name="LCORR"> T  </i>
  </separator>
  <i type="logical" name="GGA_COMPAT"> T  </i>
  <i type="logical" name="LBERRY"> F  </i>
  <i type="int" name="ICORELEVEL">     0</i>
  <i type="logical" name="LDAU"> F  </i>
  <i type="int" name="I_CONSTRAINED_M">     0</i>
  <separator name="electronic exchange-correlation" >
   <i type="string" name="GGA">--</i>
   <i type="int" name="VOSKOWN">     0</i>
   <i type="logical" name="LHFCALC"> F  </i>
   <i type="string" name="PRECFOCK"></i>
   <i type="logical" name="LSYMGRAD"> F  </i>
   <i type="logical" name="LHFONE"> F  </i>
   <i type="logical" name="LRHFCALC"> F  </i>
   <i type="logical" name="LTHOMAS"> F  </i>
   <i type="logical" name="LMODELHF"> F  </i>
   <i name="ENCUT4O">     -1.00000000</i>
   <i type="int" name="EXXOEP">     0</i>
   <i type="int" name="FOURORBIT">     0</i>
   <i name="AEXX">      0.00000000</i>
   <i name="HFALPHA">      0.00000000</i>
   <i name="MCALPHA">      0.00000000</i>
   <i name="ALDAX">      1.00000000</i>
   <i name="AGGAX">      1.00000000</i>
   <i name="ALDAC">      1.00000000</i>
   <i name="AGGAC">      1.00000000</i>
   <i type="int" name="NKREDX">     1</i>
   <i type="int" name="NKREDY">     1</i>
   <i type="int" name="NKREDZ">     1</i>
   <i type="logical" name="SHIFTRED"> F  </i>
   <i type="logical" name="ODDONLY"> F  </i>
   <i type="logical" name="EVENONLY"> F  </i>
   <i type="int" name="LMAXFOCK">     0</i>
   <i type="int" name="NMAXFOCKAE">     0</i>
   <i type="logical" name="LFOCKAEDFT"> F  </i>
   <i name="HFSCREEN">      0.00000000</i>
   <i name="HFSCREENC">      0.00000000</i>
   <i type="int" name="NBANDSGWLOW">     0</i>
  </separator>
  <separator name="vdW DFT" >
   <i type="logical" name="LUSE_VDW"> F  </i>
   <i name="Zab_VDW">     -0.84910000</i>
   <i name="PARAM1">      0.12340000</i>
   <i name="PARAM2">      1.00000000</i>
   <i name="PARAM3">      0.00000000</i>
  </separator>
  <separator name="model GW" >
   <i type="int" name="MODEL_GW">     0</i>
   <i name="MODEL_EPS0">     24.24262375</i>
   <i name="MODEL_ALPHA">      1.00000000</i>
  </separator>
  <separator name="linear response parameters" >
   <i type="logical" name="LEPSILON"> F  </i>
   <i type="logical" name="LRPA"> F  </i>
   <i type="logical" name="LNABLA"> F  </i>
   <i type="logical" name="LVEL"> F  </i>
   <i type="int" name="KINTER">     0</i>
   <i name="CSHIFT">      0.10000000</i>
   <i name="OMEGAMAX">     -1.00000000</i>
   <i name="DEG_THRESHOLD">      0.00200000</i>
   <i name="RTIME">     -0.10000000</i>
   <i name="WPLASMAI">      0.00000000</i>
   <v name="DFIELD">      0.00000000      0.00000000      0.00000000</v>
   <v name="WPLASMA">      0.00000000      0.00000000      0.00000000      0.00000000      0.00000000      0.00000000      0.00000000      0.00000000      0.00000000</v>
  </separator>
  <separator name="orbital magnetization" >
   <i type="logical" name="NUCIND"> F  </i>
   <v name="MAGPOS">      0.00000000      0.00000000      0.00000000</v>
   <i type="logical" name="LNICSALL"> T  </i>
   <i type="logical" name="ORBITALMAG"> F  </i>
   <i type="logical" name="LMAGBLOCH"> F  </i>
   <i type="logical" name="LCHIMAG"> F  </i>
   <i type="logical" name="LGAUGE"> T  </i>
   <i type="int" name="MAGATOM">     0</i>
   <v name="MAGDIPOL">      0.00000000      0.00000000      0.00000000</v>
   <v name="AVECCONST">      0.00000000      0.00000000      0.00000000</v>
  </separator>
  <separator name="response functions" >
   <i type="logical" name="LADDER"> F  </i>
   <i type="logical" name="LRPAFORCE"> F  </i>
   <i type="logical" name="LFXC"> F  </i>
   <i type="logical" name="LHARTREE"> T  </i>
   <i type="int" name="IBSE">     0</i>
   <v type="int" name="KPOINT">    -1     0     0     0</v>
   <i type="logical" name="LTCTE"> F  </i>
   <i type="logical" name="LTETE"> F  </i>
   <i type="logical" name="LTRIPLET"> F  </i>
   <i type="logical" name="LFXCEPS"> F  </i>
   <i type="logical" name="LFXHEG"> F  </i>
   <i type="int" name="NATURALO">     2</i>
   <i type="logical" name="L2ORDER"> F  </i>
   <i type="logical" name="LMP2LT"> F  </i>
   <i type="logical" name="LUSEW"> F  </i>
   <i name="ENCUTGW">     -2.00000000</i>
   <i name="ENCUTGWSOFT">     -2.00000000</i>
   <i name="ENCUTLF">     -1.00000000</i>
   <i type="int" name="LMAXMP2">    -1</i>
   <i name="SCISSOR">      0.00000000</i>
   <i type="int" name="NOMEGA">     0</i>
   <i type="int" name="NOMEGAR">     0</i>
   <i type="int" name="NBANDSGW">    -1</i>
   <i type="int" name="NBANDSO">    -1</i>
   <i type="int" name="NBANDSV">    -1</i>
   <i type="int" name="NELM">   200</i>
   <i type="int" name="NELMHF">     1</i>
   <i type="int" name="DIM">     3</i>
   <i type="int" name="ANTIRES">     0</i>
   <i name="OMEGAMAX">    -30.00000000</i>
   <i name="OMEGAMIN">    -30.00000000</i>
   <i name="OMEGATL">   -200.00000000</i>
   <i type="int" name="OMEGAGRID">   140</i>
   <i name="CSHIFT">     -0.10000000</i>
   <i type="logical" name="SELFENERGY"> F  </i>
   <i type="logical" name="LSPECTRAL"> F  </i>
   <i type="logical" name="LSPECTRALGW"> F  </i>
   <i type="logical" name="LSINGLES"> F  </i>
   <i type="logical" name="LFERMIGW"> F  </i>
   <i type="logical" name="ODDONLYGW"> F  </i>
   <i type="logical" name="EVENONLYGW"> F  </i>
   <i type="int" name="NKREDLFX">     1</i>
   <i type="int" name="NKREDLFY">     1</i>
   <i type="int" name="NKREDLFZ">     1</i>
   <i type="int" name="MAXMEM">  2800</i>
   <i type="int" name="TELESCOPE">     0</i>
   <i type="int" name="TAUPAR">     1</i>
   <i type="int" name="OMEGAPAR">    -1</i>
   <i name="LAMBDA">      1.00000000</i>
  </separator>
  <separator name="External order field" >
   <i name="OFIELD_KAPPA">      0.00000000</i>
   <v name="OFIELD_K">      0.00000000      0.00000000      0.00000000</v>
   <i name="OFIELD_Q6_NEAR">      0.00000000</i>
   <i name="OFIELD_Q6_FAR">      0.00000000</i>
   <i name="OFIELD_A">      0.00000000</i>
  </separator>
 </parameters>
 <atominfo>
  <atoms>      40 </atoms>
  <types>       3 </types>
  <array name="atoms" >
   <dimension dim="1">ion</dimension>
   <field type="string">element</field>
   <field type="int">atomtype</field>
   <set>
    <rc><c>Cs</c><c>   1</c></rc>
    <rc><c>Cs</c><c>   1</c></rc>
    <rc><c>Cs</c><c>   1</c></rc>
    <rc><c>Cs</c><c>   1</c></rc>
    <rc><c>Cs</c><c>   1</c></rc>
    <rc><c>Cs</c><c>   1</c></rc>
    <rc><c>Cs</c><c>   1</c></rc>
    <rc><c>Cs</c><c>   1</c></rc>
    <rc><c>Pb</c><c>   2</c></rc>
    <rc><c>Pb</c><c>   2</c></rc>
    <rc><c>Pb</c><c>   2</c></rc>
    <rc><c>Pb</c><c>   2</c></rc>
    <rc><c>Pb</c><c>   2</c></rc>
    <rc><c>Pb</c><c>   2</c></rc>
    <rc><c>Pb</c><c>   2</c></rc>
    <rc><c>Pb</c><c>   2</c></rc>
    <rc><c>Br</c><c>   3</c></rc>
    <rc><c>Br</c><c>   3</c></rc>
    <rc><c>Br</c><c>   3</c></rc>
    <rc><c>Br</c><c>   3</c></rc>
    <rc><c>Br</c><c>   3</c></rc>
    <rc><c>Br</c><c>   3</c></rc>
    <rc><c>Br</c><c>   3</c></rc>
    <rc><c>Br</c><c>   3</c></rc>
    <rc><c>Br</c><c>   3</c></rc>
    <rc><c>Br</c><c>   3</c></rc>
    <rc><c>Br</c><c>   3</c></rc>
    <rc><c>Br</c><c>   3</c></rc>
    <rc><c>Br</c><c>   3</c></rc>
    <rc><c>Br</c><c>   3</c></rc>
    <rc><c>Br</c><c>   3</c></rc>
    <rc><c>Br</c><c>   3</c></rc>
    <rc><c>Br</c><c>   3</c></rc>
    <rc><c>Br</c><c>   3</c></rc>
    <rc><c>Br</c><c>   3</c></rc>
    <rc><c>Br</c><c>   3</c></rc>
    <rc><c>Br</c><c>   3</c></rc>
    <rc><c>Br</c><c>   3</c></rc>
    <rc><c>Br</c><c>   3</c></rc>
    <rc><c>Br</c><c>   3</c></rc>
   </set>
  </array>
  <array name="atomtypes" >
   <dimension dim="1">type</dimension>
   <field type="int">atomspertype</field>
   <field type="string">element</field>
   <field>mass</field>
   <field>valence</field>
   <field type="string">pseudopotential</field>
   <set>
    <rc><c>   8</c><c>Cs</c><c>    132.90000000</c><c>      9.00000000</c><c>  PAW_PBE Cs_sv 08Apr2002               </c></rc>
    <rc><c>   8</c><c>Pb</c><c>    207.20000000</c><c>     14.00000000</c><c>  PAW_PBE Pb_d 06Sep2000                </c></rc>
    <rc><c>  24</c><c>Br</c><c>     79.90400000</c><c>      7.00000000</c><c>  PAW_PBE Br 06Sep2000                  </c></rc>
   </set>
  </array>
 </atominfo>
 <structure name="initialpos" >
  <crystal>
   <varray name="basis" >
    <v>      11.73535200       0.00000000       0.00000000 </v>
    <v>       0.00000000      11.73535200       0.00000000 </v>
    <v>       0.00000000       0.00000000      11.73535200 </v>
   </varray>
   <i name="volume">   1616.17491673 </i>
   <varray name="rec_basis" >
    <v>       0.08521261       0.00000000       0.00000000 </v>
    <v>       0.00000000       0.08521261       0.00000000 </v>
    <v>       0.00000000       0.00000000       0.08521261 </v>
   </varray>
  </crystal>
  <varray name="positions" >
   <v>       0.25000000       0.25000000       0.25000000 </v>
   <v>       0.25000000       0.25000000       0.75000000 </v>
   <v>       0.25000000       0.75000000       0.25000000 </v>
   <v>       0.25000000       0.75000000       0.75000000 </v>
   <v>       0.75000000       0.25000000       0.25000000 </v>
   <v>       0.75000000       0.25000000       0.75000000 </v>
   <v>       0.75000000       0.75000000       0.25000000 </v>
   <v>       0.75000000       0.75000000       0.75000000 </v>
   <v>       0.00000000       0.00000000       0.00000000 </v>
   <v>       0.00000000       0.00000000       0.50000000 </v>
   <v>       0.00000000       0.50000000       0.00000000 </v>
   <v>       0.00000000       0.50000000       0.50000000 </v>
   <v>       0.50000000       0.00000000       0.00000000 </v>
   <v>       0.50000000       0.00000000       0.50000000 </v>
   <v>       0.50000000       0.50000000       0.00000000 </v>
   <v>       0.50000000       0.50000000       0.50000000 </v>
   <v>       0.97750000       0.25000000       0.00000000 </v>
   <v>       0.97750000       0.25000000       0.50000000 </v>
   <v>       0.02250000       0.75000000       0.00000000 </v>
   <v>       0.02250000       0.75000000       0.50000000 </v>
   <v>       0.52250000       0.25000000       0.00000000 </v>
   <v>       0.52250000       0.25000000       0.50000000 </v>
   <v>       0.47750000       0.75000000       0.00000000 </v>
   <v>       0.47750000       0.75000000       0.50000000 </v>
   <v>       0.00000000       0.00000000       0.25000000 </v>
   <v>       0.00000000       0.00000000       0.75000000 </v>
   <v>       0.00000000       0.50000000       0.25000000 </v>
   <v>       0.00000000       0.50000000       0.75000000 </v>
   <v>       0.50000000       0.00000000       0.25000000 </v>
   <v>       0.50000000       0.00000000       0.75000000 </v>
   <v>       0.50000000       0.50000000       0.25000000 </v>
   <v>       0.50000000       0.50000000       0.75000000 </v>
   <v>       0.25000000       0.02250000       0.00000000 </v>
   <v>       0.25000000       0.02250000       0.50000000 </v>
   <v>       0.25000000       0.47750000       0.00000000 </v>
   <v>       0.25000000       0.47750000       0.50000000 </v>
   <v>       0.75000000       0.97750000       0.00000000 </v>
   <v>       0.75000000       0.97750000       0.50000000 </v>
   <v>       0.75000000       0.52250000       0.00000000 </v>
   <v>       0.75000000       0.52250000       0.50000000 </v>
  </varray>
 </structure>
 <calculation>
  <scstep>
   <time name="dav">   12.84   12.85</time>
   <time name="total">   14.31   14.33</time>
   <energy>
    <i name="alphaZ">    892.99476195 </i>
    <i name="ewald"> -18221.58290915 </i>
    <i name="hartreedc">  -7527.42111483 </i>
    <i name="XCdc">    924.67922583 </i>
    <i name="pawpsdc">  21633.96174531 </i>
    <i name="pawaedc"> -22707.92185401 </i>
    <i name="eentropy">     -0.00184772 </i>
    <i name="bandstr">   -231.93422714 </i>
    <i name="atom">  26580.56019858 </i>
    <i name="e_fr_energy">   1343.33397882 </i>
    <i name="e_wo_entrp">   1343.33582654 </i>
    <i name="e_0_energy">   1343.33490268 </i>
   </energy>
  </scstep>
  <scstep>
   <time name="dav">   14.17   14.19</time>
   <time name="total">   14.17   14.19</time>
   <energy>
    <i name="e_fr_energy">  -1128.09780857 </i>
    <i name="e_wo_entrp">  -1128.09780857 </i>
    <i name="e_0_energy">  -1128.09780857 </i>
   </energy>
  </scstep>
  <scstep>
   <time name="dav">   15.18   15.24</time>
   <time name="total">   15.18   15.24</time>
   <energy>
    <i name="e_fr_energy">  -1495.07006081 </i>
    <i name="e_wo_entrp">  -1495.07006081 </i>
    <i name="e_0_energy">  -1495.07006081 </i>
   </energy>
  </scstep>
  <scstep>
   <time name="dav">   14.00   14.03</time>
   <time name="total">   14.01   14.03</time>
   <energy>
    <i name="e_fr_energy">  -1507.28614958 </i>
    <i name="e_wo_entrp">  -1507.28614958 </i>
    <i name="e_0_energy">  -1507.28614958 </i>
   </energy>
  </scstep>
  <scstep>
   <time name="dav">   15.08   15.12</time>
   <time name="total">   18.16   18.21</time>
   <energy>
    <i name="e_fr_energy">  -1507.87647073 </i>
    <i name="e_wo_entrp">  -1507.87647073 </i>
    <i name="e_0_energy">  -1507.87647073 </i>
   </energy>
  </scstep>
  <scstep>
   <time name="dav">   14.76   14.76</time>
   <time name="total">   19.33   19.37</time>
   <energy>
    <i name="e_fr_energy">  -1429.30202536 </i>
    <i name="e_wo_entrp">  -1429.30202536 </i>
    <i name="e_0_energy">  -1429.30202536 </i>
   </energy>
  </scstep>
  <scstep>
   <time name="dav">   14.33   14.34</time>
   <time name="total">   18.96   18.96</time>
   <energy>
    <i name="e_fr_energy">  -1428.80547400 </i>
    <i name="e_wo_entrp">  -1428.80547400 </i>
    <i name="e_0_energy">  -1428.80547400 </i>
   </energy>
  </scstep>
  <scstep>
   <time name="dav">   14.12   14.12</time>
   <time name="total">   18.69   18.73</time>
   <energy>
    <i name="e_fr_energy">  -1428.97944004 </i>
    <i name="e_wo_entrp">  -1428.97944004 </i>
    <i name="e_0_energy">  -1428.97944004 </i>
   </energy>
  </scstep>
  <scstep>
   <time name="dav">   13.21   13.21</time>
   <time name="total">   17.79   17.83</time>
   <energy>
    <i name="e_fr_energy">  -1429.05947239 </i>
    <i name="e_wo_entrp">  -1429.05947239 </i>
    <i name="e_0_energy">  -1429.05947239 </i>
   </energy>
  </scstep>
  <scstep>
   <time name="dav">   15.46   15.46</time>
   <time name="total">   20.05   20.08</time>
   <energy>
    <i name="e_fr_energy">  -1429.06057105 </i>
    <i name="e_wo_entrp">  -1429.06057105 </i>
    <i name="e_0_energy">  -1429.06057105 </i>
   </energy>
  </scstep>
  <scstep>
   <time name="dav">   13.69   13.69</time>
   <time name="total">   18.28   18.31</time>
   <energy>
    <i name="e_fr_energy">  -1429.06335584 </i>
    <i name="e_wo_entrp">  -1429.06335584 </i>
    <i name="e_0_energy">  -1429.06335584 </i>
   </energy>
  </scstep>
  <scstep>
   <time name="dav">   13.43   13.43</time>
   <time name="total">   18.02   18.06</time>
   <energy>
    <i name="e_fr_energy">  -1429.06420451 </i>
    <i name="e_wo_entrp">  -1429.06420451 </i>
    <i name="e_0_energy">  -1429.06420451 </i>
   </energy>
  </scstep>
  <scstep>
   <time name="dav">   14.46   14.46</time>
   <time name="total">   19.05   19.09</time>
   <energy>
    <i name="e_fr_energy">  -1429.06424334 </i>
    <i name="e_wo_entrp">  -1429.06424334 </i>
    <i name="e_0_energy">  -1429.06424334 </i>
   </energy>
  </scstep>
  <scstep>
   <time name="dav">   13.33   13.33</time>
   <time name="total">   17.92   17.99</time>
   <energy>
    <i name="e_fr_energy">  -1429.06426927 </i>
    <i name="e_wo_entrp">  -1429.06426927 </i>
    <i name="e_0_energy">  -1429.06426927 </i>
   </energy>
  </scstep>
  <scstep>
   <time name="dav">   10.33   10.33</time>
   <time name="total">   14.94   14.95</time>
   <energy>
    <i name="e_fr_energy">  -1429.06425843 </i>
    <i name="e_wo_entrp">  -1429.06425843 </i>
    <i name="e_0_energy">  -1429.06425843 </i>
   </energy>
  </scstep>
  <scstep>
   <time name="dav">   10.09   10.09</time>
   <time name="total">   14.69   14.83</time>
   <energy>
    <i name="e_fr_energy">  -1429.06425356 </i>
    <i name="e_wo_entrp">  -1429.06425356 </i>
    <i name="e_0_energy">  -1429.06425356 </i>
   </energy>
  </scstep>
  <scstep>
   <time name="dav">    9.94    9.94</time>
   <time name="total">   14.57   14.58</time>
   <energy>
    <i name="e_fr_energy">  -1429.06424852 </i>
    <i name="e_wo_entrp">  -1429.06424852 </i>
    <i name="e_0_energy">  -1429.06424852 </i>
   </energy>
  </scstep>
  <scstep>
   <time name="dav">    9.97    9.97</time>
   <time name="total">   14.55   14.59</time>
   <energy>
    <i name="e_fr_energy">  -1429.06424717 </i>
    <i name="e_wo_entrp">  -1429.06424717 </i>
    <i name="e_0_energy">  -1429.06424717 </i>
   </energy>
  </scstep>
  <scstep>
   <time name="dav">    9.95    9.95</time>
   <time name="total">   11.44   11.44</time>
   <energy>
    <i name="alphaZ">    892.99476195 </i>
    <i name="ewald"> -18221.58290915 </i>
    <i name="hartreedc">  -7568.46176089 </i>
    <i name="XCdc">    964.24586098 </i>
    <i name="pawpsdc">  23310.21767816 </i>
    <i name="pawaedc"> -24384.64476457 </i>
    <i name="eentropy">     -0.00000000 </i>
    <i name="bandstr">  -3002.39331289 </i>
    <i name="atom">  26580.56019858 </i>
    <i name="e_fr_energy">  -1429.06424783 </i>
    <i name="e_wo_entrp">  -1429.06424783 </i>
    <i name="e_0_energy">  -1429.06424783 </i>
   </energy>
  </scstep>
  <structure>
   <crystal>
    <varray name="basis" >
     <v>      11.73535200       0.00000000       0.00000000 </v>
     <v>       0.00000000      11.73535200       0.00000000 </v>
     <v>       0.00000000       0.00000000      11.73535200 </v>
    </varray>
    <i name="volume">   1616.17491673 </i>
    <varray name="rec_basis" >
     <v>       0.08521261       0.00000000       0.00000000 </v>
     <v>       0.00000000       0.08521261       0.00000000 </v>
     <v>       0.00000000       0.00000000       0.08521261 </v>
    </varray>
   </crystal>
   <varray name="positions" >
    <v>       0.25000000       0.25000000       0.25000000 </v>
    <v>       0.25000000       0.25000000       0.75000000 </v>
    <v>       0.25000000       0.75000000       0.25000000 </v>
    <v>       0.25000000       0.75000000       0.75000000 </v>
    <v>       0.75000000       0.25000000       0.25000000 </v>
    <v>       0.75000000       0.25000000       0.75000000 </v>
    <v>       0.75000000       0.75000000       0.25000000 </v>
    <v>       0.75000000       0.75000000       0.75000000 </v>
    <v>       0.00000000       0.00000000       0.00000000 </v>
    <v>       0.00000000       0.00000000       0.50000000 </v>
    <v>       0.00000000       0.50000000       0.00000000 </v>
    <v>       0.00000000       0.50000000       0.50000000 </v>
    <v>       0.50000000       0.00000000       0.00000000 </v>
    <v>       0.50000000       0.00000000       0.50000000 </v>
    <v>       0.50000000       0.50000000       0.00000000 </v>
    <v>       0.50000000       0.50000000       0.50000000 </v>
    <v>       0.97750000       0.25000000       0.00000000 </v>
    <v>       0.97750000       0.25000000       0.50000000 </v>
    <v>       0.02250000       0.75000000       0.00000000 </v>
    <v>       0.02250000       0.75000000       0.50000000 </v>
    <v>       0.52250000       0.25000000       0.00000000 </v>
    <v>       0.52250000       0.25000000       0.50000000 </v>
    <v>       0.47750000       0.75000000       0.00000000 </v>
    <v>       0.47750000       0.75000000       0.50000000 </v>
    <v>       0.00000000       0.00000000       0.25000000 </v>
    <v>       0.00000000       0.00000000       0.75000000 </v>
    <v>       0.00000000       0.50000000       0.25000000 </v>
    <v>       0.00000000       0.50000000       0.75000000 </v>
    <v>       0.50000000       0.00000000       0.25000000 </v>
    <v>       0.50000000       0.00000000       0.75000000 </v>
    <v>       0.50000000       0.50000000       0.25000000 </v>
    <v>       0.50000000       0.50000000       0.75000000 </v>
    <v>       0.25000000       0.02250000       0.00000000 </v>
    <v>       0.25000000       0.02250000       0.50000000 </v>
    <v>       0.25000000       0.47750000       0.00000000 </v>
    <v>       0.25000000       0.47750000       0.50000000 </v>
    <v>       0.75000000       0.97750000       0.00000000 </v>
    <v>       0.75000000       0.97750000       0.50000000 </v>
    <v>       0.75000000       0.52250000       0.00000000 </v>
    <v>       0.75000000       0.52250000       0.50000000 </v>
   </varray>
  </structure>
  <varray name="forces" >
   <v>      -0.00000000      -0.00000000       0.00000000 </v>
   <v>      -0.00000000       0.00000000       0.00000000 </v>
   <v>      -0.00000000      -0.00000000       0.00000000 </v>
   <v>      -0.00000000      -0.00000000       0.00000000 </v>
   <v>      -0.00000000       0.00000000       0.00000000 </v>
   <v>      -0.00000000      -0.00000000       0.00000000 </v>
   <v>      -0.00000000       0.00000000       0.00000000 </v>
   <v>      -0.00000000       0.00000000       0.00000000 </v>
   <v>      -0.00000000      -0.00000000       0.00000000 </v>
   <v>      -0.00000000      -0.00000000       0.00000000 </v>
   <v>      -0.00000000       0.00000000       0.00000000 </v>
   <v>      -0.00000000       0.00000000       0.00000000 </v>
   <v>      -0.00000000      -0.00000000       0.00000000 </v>
   <v>      -0.00000000       0.00000000       0.00000000 </v>
   <v>      -0.00000000      -0.00000000       0.00000000 </v>
   <v>      -0.00000000      -0.00000000       0.00000000 </v>
   <v>      -0.06275627       0.00000000       0.00000000 </v>
   <v>      -0.06275627       0.00000000       0.00000000 </v>
   <v>       0.06275627       0.00000000      -0.00000000 </v>
   <v>       0.06275627       0.00000000      -0.00000000 </v>
   <v>       0.06275627      -0.00000000      -0.00000000 </v>
   <v>       0.06275627      -0.00000000       0.00000000 </v>
   <v>      -0.06275627       0.00000000      -0.00000000 </v>
   <v>      -0.06275627      -0.00000000       0.00000000 </v>
   <v>      -0.00000000       0.00000000       0.00000000 </v>
   <v>      -0.00000000       0.00000000       0.00000000 </v>
   <v>      -0.00000000       0.00000000       0.00000000 </v>
   <v>      -0.00000000       0.00000000       0.00000000 </v>
   <v>      -0.00000000      -0.00000000       0.00000000 </v>
   <v>      -0.00000000      -0.00000000       0.00000000 </v>
   <v>      -0.00000000      -0.00000000       0.00000000 </v>
   <v>      -0.00000000       0.00000000       0.00000000 </v>
   <v>      -0.00000000       0.06275627      -0.00000000 </v>
   <v>      -0.00000000       0.06275627      -0.00000000 </v>
   <v>      -0.00000000      -0.06275627      -0.00000000 </v>
   <v>      -0.00000000      -0.06275627      -0.00000000 </v>
   <v>      -0.00000000      -0.06275627       0.00000000 </v>
   <v>      -0.00000000      -0.06275627      -0.00000000 </v>
   <v>      -0.00000000       0.06275627       0.00000000 </v>
   <v>      -0.00000000       0.06275627      -0.00000000 </v>
  </varray>
  <varray name="stress" >
   <v>       2.89299517       0.00000000       0.00000000 </v>
   <v>       0.00000000       2.89299517       0.00000000 </v>
   <v>      -0.00000000       0.00000000       5.20017146 </v>
  </varray>
  <energy>
   <i name="e_fr_energy">  -1429.06424783 </i>
   <i name="e_wo_entrp">  -1429.06424783 </i>
   <i name="e_0_energy">     -0.00000000 </i>
  </energy>
  <time name="totalsc">  364.08  364.87</time>
  <eigenvalues>
   <array>
    <dimension dim="1">band</dimension>
    <dimension dim="2">kpoint</dimension>
    <dimension dim="3">spin</dimension>
    <field>eigene</field>
    <field>occ</field>
    <set>
     <set comment="spin 1">
      <set comment="kpoint 1">
       <r>  -21.0596    1.0000 </r>
       <r>  -21.0586    1.0000 </r>
       <r>  -21.0586    1.0000 </r>
       <r>  -21.0585    1.0000 </r>
       <r>  -21.0577    1.0000 </r>
       <r>  -21.0576    1.0000 </r>
       <r>  -21.0576    1.0000 </r>
       <r>  -21.0563    1.0000 </r>
       <r>  -16.3061    1.0000 </r>
       <r>  -16.3043    1.0000 </r>
       <r>  -16.3043    1.0000 </r>
       <r>  -16.2983    1.0000 </r>
       <r>  -16.2983    1.0000 </r>
       <r>  -16.2721    1.0000 </r>
       <r>  -16.2642    1.0000 </r>
       <r>  -16.2642    1.0000 </r>
       <r>  -16.2270    1.0000 </r>
       <r>  -16.2262    1.0000 </r>
       <r>  -16.2262    1.0000 </r>
       <r>  -16.1804    1.0000 </r>
       <r>  -16.1800    1.0000 </r>
       <r>  -16.1800    1.0000 </r>
       <r>  -16.1776    1.0000 </r>
       <r>  -16.1772    1.0000 </r>
       <r>  -16.0838    1.0000 </r>
       <r>  -16.0835    1.0000 </r>
       <r>  -16.0831    1.0000 </r>
       <r>  -16.0831    1.0000 </r>
       <r>  -16.0829    1.0000 </r>
       <r>  -16.0829    1.0000 </r>
       <r>  -16.0827    1.0000 </r>
       <r>  -16.0827    1.0000 </r>
       <r>  -16.0827    1.0000 </r>
       <r>  -16.0827    1.0000 </r>
       <r>  -16.0821    1.0000 </r>
       <r>  -16.0821    1.0000 </r>
       <r>  -16.0821    1.0000 </r>
       <r>  -16.0821    1.0000 </r>
       <r>  -16.0819    1.0000 </r>
       <r>  -16.0819    1.0000 </r>
       <r>  -16.0819    1.0000 </r>
       <r>  -16.0819    1.0000 </r>
       <r>  -16.0816    1.0000 </r>
       <r>  -16.0815    1.0000 </r>
       <r>  -16.0808    1.0000 </r>
       <r>  -16.0808    1.0000 </r>
       <r>  -16.0807    1.0000 </r>
       <r>  -16.0807    1.0000 </r>
       <r>  -14.3891    1.0000 </r>
       <r>  -14.1649    1.0000 </r>
       <r>  -14.1649    1.0000 </r>
       <r>  -14.1553    1.0000 </r>
       <r>  -14.0078    1.0000 </r>
       <r>  -14.0078    1.0000 </r>
       <r>  -14.0066    1.0000 </r>
       <r>  -14.0033    1.0000 </r>
       <r>  -13.9902    1.0000 </r>
       <r>  -13.9902    1.0000 </r>
       <r>  -13.9883    1.0000 </r>
       <r>  -13.9883    1.0000 </r>
       <r>  -13.9876    1.0000 </r>
       <r>  -13.9876    1.0000 </r>
       <r>  -13.9835    1.0000 </r>
       <r>  -13.9835    1.0000 </r>
       <r>  -13.9149    1.0000 </r>
       <r>  -13.9017    1.0000 </r>
       <r>  -13.9017    1.0000 </r>
       <r>  -13.6354    1.0000 </r>
       <r>  -13.6346    1.0000 </r>
       <r>  -13.6342    1.0000 </r>
       <r>  -13.6330    1.0000 </r>
       <r>  -13.6330    1.0000 </r>
       <r>   -8.2561    1.0000 </r>
       <r>   -7.6552    1.0000 </r>
       <r>   -7.6552    1.0000 </r>
       <r>   -7.6228    1.0000 </r>
       <r>   -7.4527    1.0000 </r>
       <r>   -7.4527    1.0000 </r>
       <r>   -7.4402    1.0000 </r>
       <r>   -7.4355    1.0000 </r>
       <r>   -7.4355    1.0000 </r>
       <r>   -7.4274    1.0000 </r>
       <r>   -7.4274    1.0000 </r>
       <r>   -7.4165    1.0000 </r>
       <r>   -7.4165    1.0000 </r>
       <r>   -7.4154    1.0000 </r>
       <r>   -7.4154    1.0000 </r>
       <r>   -7.4106    1.0000 </r>
       <r>   -7.4030    1.0000 </r>
       <r>   -7.4030    1.0000 </r>
       <r>   -7.4030    1.0000 </r>
       <r>   -7.4030    1.0000 </r>
       <r>   -7.3974    1.0000 </r>
       <r>   -7.3974    1.0000 </r>
       <r>   -7.3936    1.0000 </r>
       <r>   -7.3925    1.0000 </r>
       <r>   -7.3925    1.0000 </r>
       <r>   -7.3883    1.0000 </r>
       <r>   -7.3883    1.0000 </r>
       <r>   -7.3875    1.0000 </r>
       <r>   -7.0094    1.0000 </r>
       <r>   -6.9725    1.0000 </r>
       <r>   -6.9725    1.0000 </r>
       <r>   -6.2174    1.0000 </r>
       <r>   -3.4380    1.0000 </r>
       <r>   -3.4026    1.0000 </r>
       <r>   -3.4026    1.0000 </r>
       <r>   -3.3470    1.0000 </r>
       <r>   -3.3470    1.0000 </r>
       <r>   -3.3061    1.0000 </r>
       <r>   -3.3061    1.0000 </r>
       <r>   -3.3040    1.0000 </r>
       <r>   -3.3040    1.0000 </r>
       <r>   -3.2011    1.0000 </r>
       <r>   -3.1511    1.0000 </r>
       <r>   -3.1511    1.0000 </r>
       <r>   -2.1473    1.0000 </r>
       <r>   -2.1473    1.0000 </r>
       <r>   -2.1360    1.0000 </r>
       <r>   -1.9478    1.0000 </r>
       <r>   -1.9478    1.0000 </r>
       <r>   -1.9367    1.0000 </r>
       <r>   -1.8988    1.0000 </r>
       <r>   -1.8988    1.0000 </r>
       <r>   -1.8704    1.0000 </r>
       <r>   -1.5592    1.0000 </r>
       <r>   -1.5592    1.0000 </r>
       <r>   -1.5399    1.0000 </r>
       <r>   -1.5399    1.0000 </r>
       <r>   -1.5147    1.0000 </r>
       <r>   -1.5147    1.0000 </r>
       <r>   -1.4687    1.0000 </r>
       <r>   -1.4687    1.0000 </r>
       <r>   -1.4681    1.0000 </r>
       <r>   -1.4681    1.0000 </r>
       <r>   -1.4514    1.0000 </r>
       <r>   -1.4514    1.0000 </r>
       <r>   -1.3938    1.0000 </r>
       <r>   -1.3938    1.0000 </r>
       <r>   -1.3805    1.0000 </r>
       <r>   -1.3802    1.0000 </r>
       <r>   -1.3802    1.0000 </r>
       <r>   -1.3765    1.0000 </r>
       <r>   -1.3765    1.0000 </r>
       <r>   -1.3552    1.0000 </r>
       <r>   -1.3552    1.0000 </r>
       <r>   -1.3409    1.0000 </r>
       <r>   -1.3339    1.0000 </r>
       <r>   -1.3272    1.0000 </r>
       <r>   -1.3174    1.0000 </r>
       <r>   -1.3174    1.0000 </r>
       <r>   -1.2464    1.0000 </r>
       <r>   -1.2464    1.0000 </r>
       <r>   -1.2393    1.0000 </r>
       <r>   -1.2370    1.0000 </r>
       <r>   -1.2370    1.0000 </r>
       <r>   -1.2365    1.0000 </r>
       <r>   -1.2365    1.0000 </r>
       <r>   -1.2336    1.0000 </r>
       <r>   -1.2336    1.0000 </r>
       <r>   -1.1250    1.0000 </r>
       <r>   -1.1154    1.0000 </r>
       <r>   -1.1154    1.0000 </r>
       <r>   -0.7892    1.0000 </r>
       <r>   -0.7866    1.0000 </r>
       <r>   -0.7775    1.0000 </r>
       <r>   -0.7775    1.0000 </r>
       <r>   -0.7596    1.0000 </r>
       <r>   -0.7596    1.0000 </r>
       <r>   -0.5020    1.0000 </r>
       <r>   -0.5020    1.0000 </r>
       <r>   -0.4291    1.0000 </r>
       <r>    0.2337    1.0000 </r>
       <r>    0.2567    1.0000 </r>
       <r>    0.2567    1.0000 </r>
       <r>    0.9594    1.0000 </r>
       <r>    2.8294    0.0000 </r>
       <r>    2.8294    0.0000 </r>
       <r>    2.8304    0.0000 </r>
       <r>    3.3378    0.0000 </r>
       <r>    3.3378    0.0000 </r>
       <r>    3.3441    0.0000 </r>
       <r>    3.3441    0.0000 </r>
       <r>    3.3617    0.0000 </r>
       <r>    3.3617    0.0000 </r>
       <r>    3.7992    0.0000 </r>
       <r>    3.8011    0.0000 </r>
       <r>    3.8011    0.0000 </r>
       <r>    4.5734    0.0000 </r>
       <r>    5.5418    0.0000 </r>
       <r>    5.6255    0.0000 </r>
       <r>    5.9569    0.0000 </r>
       <r>    6.0158    0.0000 </r>
       <r>    6.0465    0.0000 </r>
       <r>    6.0465    0.0000 </r>
       <r>    6.1260    0.0000 </r>
       <r>    6.1260    0.0000 </r>
       <r>    6.2291    0.0000 </r>
       <r>    6.3895    0.0000 </r>
       <r>    6.3895    0.0000 </r>
       <r>    6.4664    0.0000 </r>
       <r>    6.5440    0.0000 </r>
       <r>    6.5442    0.0000 </r>
       <r>    6.5519    0.0000 </r>
       <r>    6.5519    0.0000 </r>
       <r>    6.5724    0.0000 </r>
       <r>    6.5727    0.0000 </r>
       <r>    6.5764    0.0000 </r>
       <r>    6.5775    0.0000 </r>
       <r>    6.6279    0.0000 </r>
       <r>    6.6553    0.0000 </r>
       <r>    6.6556    0.0000 </r>
       <r>    6.7305    0.0000 </r>
       <r>    6.7354    0.0000 </r>
       <r>    6.7421    0.0000 </r>
       <r>    6.7736    0.0000 </r>
      </set>
      <set comment="kpoint 2">
       <r>  -21.0592    1.0000 </r>
       <r>  -21.0592    1.0000 </r>
       <r>  -21.0580    1.0000 </r>
       <r>  -21.0580    1.0000 </r>
       <r>  -21.0578    1.0000 </r>
       <r>  -21.0578    1.0000 </r>
       <r>  -21.0571    1.0000 </r>
       <r>  -21.0571    1.0000 </r>
       <r>  -16.3046    1.0000 </r>
       <r>  -16.3046    1.0000 </r>
       <r>  -16.2836    1.0000 </r>
       <r>  -16.2836    1.0000 </r>
       <r>  -16.2759    1.0000 </r>
       <r>  -16.2759    1.0000 </r>
       <r>  -16.2635    1.0000 </r>
       <r>  -16.2635    1.0000 </r>
       <r>  -16.2224    1.0000 </r>
       <r>  -16.2224    1.0000 </r>
       <r>  -16.2093    1.0000 </r>
       <r>  -16.2093    1.0000 </r>
       <r>  -16.2071    1.0000 </r>
       <r>  -16.2071    1.0000 </r>
       <r>  -16.1798    1.0000 </r>
       <r>  -16.1798    1.0000 </r>
       <r>  -16.0833    1.0000 </r>
       <r>  -16.0833    1.0000 </r>
       <r>  -16.0832    1.0000 </r>
       <r>  -16.0832    1.0000 </r>
       <r>  -16.0831    1.0000 </r>
       <r>  -16.0831    1.0000 </r>
       <r>  -16.0825    1.0000 </r>
       <r>  -16.0825    1.0000 </r>
       <r>  -16.0824    1.0000 </r>
       <r>  -16.0824    1.0000 </r>
       <r>  -16.0822    1.0000 </r>
       <r>  -16.0822    1.0000 </r>
       <r>  -16.0820    1.0000 </r>
       <r>  -16.0820    1.0000 </r>
       <r>  -16.0818    1.0000 </r>
       <r>  -16.0818    1.0000 </r>
       <r>  -16.0818    1.0000 </r>
       <r>  -16.0818    1.0000 </r>
       <r>  -16.0814    1.0000 </r>
       <r>  -16.0814    1.0000 </r>
       <r>  -16.0811    1.0000 </r>
       <r>  -16.0811    1.0000 </r>
       <r>  -16.0810    1.0000 </r>
       <r>  -16.0810    1.0000 </r>
       <r>  -14.3182    1.0000 </r>
       <r>  -14.3182    1.0000 </r>
       <r>  -14.1146    1.0000 </r>
       <r>  -14.1146    1.0000 </r>
       <r>  -14.1067    1.0000 </r>
       <r>  -14.1067    1.0000 </r>
       <r>  -14.0071    1.0000 </r>
       <r>  -14.0071    1.0000 </r>
       <r>  -14.0056    1.0000 </r>
       <r>  -14.0056    1.0000 </r>
       <r>  -13.9880    1.0000 </r>
       <r>  -13.9880    1.0000 </r>
       <r>  -13.9868    1.0000 </r>
       <r>  -13.9868    1.0000 </r>
       <r>  -13.9413    1.0000 </r>
       <r>  -13.9413    1.0000 </r>
       <r>  -13.7692    1.0000 </r>
       <r>  -13.7692    1.0000 </r>
       <r>  -13.7347    1.0000 </r>
       <r>  -13.7347    1.0000 </r>
       <r>  -13.7328    1.0000 </r>
       <r>  -13.7328    1.0000 </r>
       <r>  -13.6341    1.0000 </r>
       <r>  -13.6341    1.0000 </r>
       <r>   -7.9865    1.0000 </r>
       <r>   -7.9865    1.0000 </r>
       <r>   -7.4401    1.0000 </r>
       <r>   -7.4401    1.0000 </r>
       <r>   -7.4282    1.0000 </r>
       <r>   -7.4282    1.0000 </r>
       <r>   -7.4268    1.0000 </r>
       <r>   -7.4268    1.0000 </r>
       <r>   -7.4263    1.0000 </r>
       <r>   -7.4263    1.0000 </r>
       <r>   -7.4259    1.0000 </r>
       <r>   -7.4259    1.0000 </r>
       <r>   -7.4114    1.0000 </r>
       <r>   -7.4114    1.0000 </r>
       <r>   -7.4110    1.0000 </r>
       <r>   -7.4110    1.0000 </r>
       <r>   -7.4041    1.0000 </r>
       <r>   -7.4041    1.0000 </r>
       <r>   -7.4028    1.0000 </r>
       <r>   -7.4028    1.0000 </r>
       <r>   -7.3977    1.0000 </r>
       <r>   -7.3977    1.0000 </r>
       <r>   -7.3949    1.0000 </r>
       <r>   -7.3949    1.0000 </r>
       <r>   -7.3923    1.0000 </r>
       <r>   -7.3923    1.0000 </r>
       <r>   -7.3682    1.0000 </r>
       <r>   -7.3682    1.0000 </r>
       <r>   -7.3336    1.0000 </r>
       <r>   -7.3336    1.0000 </r>
       <r>   -6.6640    1.0000 </r>
       <r>   -6.6640    1.0000 </r>
       <r>   -3.3940    1.0000 </r>
       <r>   -3.3940    1.0000 </r>
       <r>   -3.3560    1.0000 </r>
       <r>   -3.3560    1.0000 </r>
       <r>   -3.2779    1.0000 </r>
       <r>   -3.2779    1.0000 </r>
       <r>   -3.2318    1.0000 </r>
       <r>   -3.2318    1.0000 </r>
       <r>   -2.4694    1.0000 </r>
       <r>   -2.4694    1.0000 </r>
       <r>   -2.4233    1.0000 </r>
       <r>   -2.4233    1.0000 </r>
       <r>   -2.4191    1.0000 </r>
       <r>   -2.4191    1.0000 </r>
       <r>   -2.2771    1.0000 </r>
       <r>   -2.2771    1.0000 </r>
       <r>   -2.0513    1.0000 </r>
       <r>   -2.0513    1.0000 </r>
       <r>   -2.0164    1.0000 </r>
       <r>   -2.0164    1.0000 </r>
       <r>   -2.0065    1.0000 </r>
       <r>   -2.0065    1.0000 </r>
       <r>   -1.8331    1.0000 </r>
       <r>   -1.8331    1.0000 </r>
       <r>   -1.8189    1.0000 </r>
       <r>   -1.8189    1.0000 </r>
       <r>   -1.5701    1.0000 </r>
       <r>   -1.5701    1.0000 </r>
       <r>   -1.5407    1.0000 </r>
       <r>   -1.5407    1.0000 </r>
       <r>   -1.4316    1.0000 </r>
       <r>   -1.4316    1.0000 </r>
       <r>   -1.4260    1.0000 </r>
       <r>   -1.4260    1.0000 </r>
       <r>   -1.3574    1.0000 </r>
       <r>   -1.3574    1.0000 </r>
       <r>   -1.3537    1.0000 </r>
       <r>   -1.3537    1.0000 </r>
       <r>   -1.3099    1.0000 </r>
       <r>   -1.3099    1.0000 </r>
       <r>   -1.3028    1.0000 </r>
       <r>   -1.3028    1.0000 </r>
       <r>   -1.2921    1.0000 </r>
       <r>   -1.2921    1.0000 </r>
       <r>   -1.2871    1.0000 </r>
       <r>   -1.2871    1.0000 </r>
       <r>   -1.2592    1.0000 </r>
       <r>   -1.2592    1.0000 </r>
       <r>   -1.2574    1.0000 </r>
       <r>   -1.2574    1.0000 </r>
       <r>   -1.1869    1.0000 </r>
       <r>   -1.1869    1.0000 </r>
       <r>   -1.1814    1.0000 </r>
       <r>   -1.1814    1.0000 </r>
       <r>   -1.1185    1.0000 </r>
       <r>   -1.1185    1.0000 </r>
       <r>   -1.0268    1.0000 </r>
       <r>   -1.0268    1.0000 </r>
       <r>   -1.0197    1.0000 </r>
       <r>   -1.0197    1.0000 </r>
       <r>   -0.9859    1.0000 </r>
       <r>   -0.9859    1.0000 </r>
       <r>   -0.9444    1.0000 </r>
       <r>   -0.9444    1.0000 </r>
       <r>   -0.7684    1.0000 </r>
       <r>   -0.7684    1.0000 </r>
       <r>   -0.3227    1.0000 </r>
       <r>   -0.3227    1.0000 </r>
       <r>   -0.2719    1.0000 </r>
       <r>   -0.2719    1.0000 </r>
       <r>    0.4099    1.0000 </r>
       <r>    0.4099    1.0000 </r>
       <r>    3.0866    0.0000 </r>
       <r>    3.0866    0.0000 </r>
       <r>    3.0920    0.0000 </r>
       <r>    3.0920    0.0000 </r>
       <r>    3.5713    0.0000 </r>
       <r>    3.5713    0.0000 </r>
       <r>    3.5767    0.0000 </r>
       <r>    3.5767    0.0000 </r>
       <r>    4.5680    0.0000 </r>
       <r>    4.5680    0.0000 </r>
       <r>    5.0313    0.0000 </r>
       <r>    5.0313    0.0000 </r>
       <r>    5.0460    0.0000 </r>
       <r>    5.0460    0.0000 </r>
       <r>    5.1262    0.0000 </r>
       <r>    5.1262    0.0000 </r>
       <r>    5.5436    0.0000 </r>
       <r>    5.5436    0.0000 </r>
       <r>    5.9386    0.0000 </r>
       <r>    5.9386    0.0000 </r>
       <r>    6.0709    0.0000 </r>
       <r>    6.0709    0.0000 </r>
       <r>    6.3044    0.0000 </r>
       <r>    6.3044    0.0000 </r>
       <r>    6.3627    0.0000 </r>
       <r>    6.3627    0.0000 </r>
       <r>    6.4220    0.0000 </r>
       <r>    6.4220    0.0000 </r>
       <r>    6.4426    0.0000 </r>
       <r>    6.4427    0.0000 </r>
       <r>    6.5243    0.0000 </r>
       <r>    6.5243    0.0000 </r>
       <r>    6.5744    0.0000 </r>
       <r>    6.5748    0.0000 </r>
       <r>    6.6060    0.0000 </r>
       <r>    6.6069    0.0000 </r>
       <r>    6.6481    0.0000 </r>
       <r>    6.6490    0.0000 </r>
       <r>    6.7003    0.0000 </r>
       <r>    6.7199    0.0000 </r>
      </set>
      <set comment="kpoint 3">
       <r>  -21.0586    1.0000 </r>
       <r>  -21.0586    1.0000 </r>
       <r>  -21.0586    1.0000 </r>
       <r>  -21.0586    1.0000 </r>
       <r>  -21.0575    1.0000 </r>
       <r>  -21.0575    1.0000 </r>
       <r>  -21.0575    1.0000 </r>
       <r>  -21.0575    1.0000 </r>
       <r>  -16.2888    1.0000 </r>
       <r>  -16.2888    1.0000 </r>
       <r>  -16.2888    1.0000 </r>
       <r>  -16.2888    1.0000 </r>
       <r>  -16.2412    1.0000 </r>
       <r>  -16.2412    1.0000 </r>
       <r>  -16.2412    1.0000 </r>
       <r>  -16.2412    1.0000 </r>
       <r>  -16.2412    1.0000 </r>
       <r>  -16.2412    1.0000 </r>
       <r>  -16.2412    1.0000 </r>
       <r>  -16.2412    1.0000 </r>
       <r>  -16.2035    1.0000 </r>
       <r>  -16.2035    1.0000 </r>
       <r>  -16.2035    1.0000 </r>
       <r>  -16.2035    1.0000 </r>
       <r>  -16.0827    1.0000 </r>
       <r>  -16.0827    1.0000 </r>
       <r>  -16.0827    1.0000 </r>
       <r>  -16.0827    1.0000 </r>
       <r>  -16.0827    1.0000 </r>
       <r>  -16.0827    1.0000 </r>
       <r>  -16.0827    1.0000 </r>
       <r>  -16.0827    1.0000 </r>
       <r>  -16.0825    1.0000 </r>
       <r>  -16.0825    1.0000 </r>
       <r>  -16.0825    1.0000 </r>
       <r>  -16.0825    1.0000 </r>
       <r>  -16.0825    1.0000 </r>
       <r>  -16.0825    1.0000 </r>
       <r>  -16.0825    1.0000 </r>
       <r>  -16.0825    1.0000 </r>
       <r>  -16.0813    1.0000 </r>
       <r>  -16.0813    1.0000 </r>
       <r>  -16.0813    1.0000 </r>
       <r>  -16.0813    1.0000 </r>
       <r>  -16.0812    1.0000 </r>
       <r>  -16.0812    1.0000 </r>
       <r>  -16.0812    1.0000 </r>
       <r>  -16.0812    1.0000 </r>
       <r>  -14.2562    1.0000 </r>
       <r>  -14.2562    1.0000 </r>
       <r>  -14.2562    1.0000 </r>
       <r>  -14.2562    1.0000 </r>
       <r>  -14.0739    1.0000 </r>
       <r>  -14.0739    1.0000 </r>
       <r>  -14.0739    1.0000 </r>
       <r>  -14.0739    1.0000 </r>
       <r>  -14.0064    1.0000 </r>
       <r>  -14.0064    1.0000 </r>
       <r>  -14.0064    1.0000 </r>
       <r>  -14.0064    1.0000 </r>
       <r>  -13.8114    1.0000 </r>
       <r>  -13.8114    1.0000 </r>
       <r>  -13.8114    1.0000 </r>
       <r>  -13.8114    1.0000 </r>
       <r>  -13.8087    1.0000 </r>
       <r>  -13.8087    1.0000 </r>
       <r>  -13.8087    1.0000 </r>
       <r>  -13.8087    1.0000 </r>
       <r>  -13.7109    1.0000 </r>
       <r>  -13.7109    1.0000 </r>
       <r>  -13.7109    1.0000 </r>
       <r>  -13.7109    1.0000 </r>
       <r>   -7.7164    1.0000 </r>
       <r>   -7.7164    1.0000 </r>
       <r>   -7.7164    1.0000 </r>
       <r>   -7.7164    1.0000 </r>
       <r>   -7.4300    1.0000 </r>
       <r>   -7.4300    1.0000 </r>
       <r>   -7.4300    1.0000 </r>
       <r>   -7.4300    1.0000 </r>
       <r>   -7.4282    1.0000 </r>
       <r>   -7.4282    1.0000 </r>
       <r>   -7.4282    1.0000 </r>
       <r>   -7.4282    1.0000 </r>
       <r>   -7.4154    1.0000 </r>
       <r>   -7.4154    1.0000 </r>
       <r>   -7.4154    1.0000 </r>
       <r>   -7.4154    1.0000 </r>
       <r>   -7.4081    1.0000 </r>
       <r>   -7.4081    1.0000 </r>
       <r>   -7.4081    1.0000 </r>
       <r>   -7.4081    1.0000 </r>
       <r>   -7.3982    1.0000 </r>
       <r>   -7.3982    1.0000 </r>
       <r>   -7.3982    1.0000 </r>
       <r>   -7.3982    1.0000 </r>
       <r>   -7.3932    1.0000 </r>
       <r>   -7.3932    1.0000 </r>
       <r>   -7.3932    1.0000 </r>
       <r>   -7.3932    1.0000 </r>
       <r>   -7.0528    1.0000 </r>
       <r>   -7.0528    1.0000 </r>
       <r>   -7.0528    1.0000 </r>
       <r>   -7.0528    1.0000 </r>
       <r>   -3.3383    1.0000 </r>
       <r>   -3.3383    1.0000 </r>
       <r>   -3.3383    1.0000 </r>
       <r>   -3.3383    1.0000 </r>
       <r>   -2.6477    1.0000 </r>
       <r>   -2.6477    1.0000 </r>
       <r>   -2.6477    1.0000 </r>
       <r>   -2.6477    1.0000 </r>
       <r>   -2.4975    1.0000 </r>
       <r>   -2.4975    1.0000 </r>
       <r>   -2.4975    1.0000 </r>
       <r>   -2.4975    1.0000 </r>
       <r>   -2.2717    1.0000 </r>
       <r>   -2.2717    1.0000 </r>
       <r>   -2.2717    1.0000 </r>
       <r>   -2.2717    1.0000 </r>
       <r>   -2.2247    1.0000 </r>
       <r>   -2.2247    1.0000 </r>
       <r>   -2.2247    1.0000 </r>
       <r>   -2.2247    1.0000 </r>
       <r>   -2.0059    1.0000 </r>
       <r>   -2.0059    1.0000 </r>
       <r>   -2.0059    1.0000 </r>
       <r>   -2.0059    1.0000 </r>
       <r>   -1.8004    1.0000 </r>
       <r>   -1.8004    1.0000 </r>
       <r>   -1.8004    1.0000 </r>
       <r>   -1.8004    1.0000 </r>
       <r>   -1.5878    1.0000 </r>
       <r>   -1.5878    1.0000 </r>
       <r>   -1.5878    1.0000 </r>
       <r>   -1.5878    1.0000 </r>
       <r>   -1.5455    1.0000 </r>
       <r>   -1.5455    1.0000 </r>
       <r>   -1.5455    1.0000 </r>
       <r>   -1.5455    1.0000 </r>
       <r>   -1.3645    1.0000 </r>
       <r>   -1.3645    1.0000 </r>
       <r>   -1.3645    1.0000 </r>
       <r>   -1.3645    1.0000 </r>
       <r>   -1.2685    1.0000 </r>
       <r>   -1.2685    1.0000 </r>
       <r>   -1.2685    1.0000 </r>
       <r>   -1.2685    1.0000 </r>
       <r>   -1.2384    1.0000 </r>
       <r>   -1.2384    1.0000 </r>
       <r>   -1.2384    1.0000 </r>
       <r>   -1.2384    1.0000 </r>
       <r>   -1.0885    1.0000 </r>
       <r>   -1.0885    1.0000 </r>
       <r>   -1.0885    1.0000 </r>
       <r>   -1.0885    1.0000 </r>
       <r>   -1.0648    1.0000 </r>
       <r>   -1.0648    1.0000 </r>
       <r>   -1.0648    1.0000 </r>
       <r>   -1.0648    1.0000 </r>
       <r>   -1.0397    1.0000 </r>
       <r>   -1.0397    1.0000 </r>
       <r>   -1.0397    1.0000 </r>
       <r>   -1.0397    1.0000 </r>
       <r>   -0.9334    1.0000 </r>
       <r>   -0.9334    1.0000 </r>
       <r>   -0.9334    1.0000 </r>
       <r>   -0.9334    1.0000 </r>
       <r>   -0.9288    1.0000 </r>
       <r>   -0.9288    1.0000 </r>
       <r>   -0.9288    1.0000 </r>
       <r>   -0.9288    1.0000 </r>
       <r>   -0.1417    1.0000 </r>
       <r>   -0.1417    1.0000 </r>
       <r>   -0.1417    1.0000 </r>
       <r>   -0.1417    1.0000 </r>
       <r>    3.3331    0.0000 </r>
       <r>    3.3331    0.0000 </r>
       <r>    3.3331    0.0000 </r>
       <r>    3.3331    0.0000 </r>
       <r>    4.7231    0.0000 </r>
       <r>    4.7231    0.0000 </r>
       <r>    4.7231    0.0000 </r>
       <r>    4.7231    0.0000 </r>
       <r>    4.8237    0.0000 </r>
       <r>    4.8237    0.0000 </r>
       <r>    4.8237    0.0000 </r>
       <r>    4.8237    0.0000 </r>
       <r>    5.1587    0.0000 </r>
       <r>    5.1587    0.0000 </r>
       <r>    5.1587    0.0000 </r>
       <r>    5.1587    0.0000 </r>
       <r>    5.1962    0.0000 </r>
       <r>    5.1962    0.0000 </r>
       <r>    5.1962    0.0000 </r>
       <r>    5.1962    0.0000 </r>
       <r>    5.7832    0.0000 </r>
       <r>    5.7832    0.0000 </r>
       <r>    5.7832    0.0000 </r>
       <r>    5.7832    0.0000 </r>
       <r>    6.3066    0.0000 </r>
       <r>    6.3066    0.0000 </r>
       <r>    6.3066    0.0000 </r>
       <r>    6.3066    0.0000 </r>
       <r>    6.3835    0.0000 </r>
       <r>    6.3835    0.0000 </r>
       <r>    6.3835    0.0000 </r>
       <r>    6.3835    0.0000 </r>
       <r>    6.4378    0.0000 </r>
       <r>    6.4378    0.0000 </r>
       <r>    6.4378    0.0000 </r>
       <r>    6.4378    0.0000 </r>
       <r>    6.4548    0.0000 </r>
       <r>    6.4548    0.0000 </r>
       <r>    6.4548    0.0000 </r>
       <r>    6.4548    0.0000 </r>
      </set>
      <set comment="kpoint 4">
       <r>  -21.0592    1.0000 </r>
       <r>  -21.0592    1.0000 </r>
       <r>  -21.0579    1.0000 </r>
       <r>  -21.0579    1.0000 </r>
       <r>  -21.0579    1.0000 </r>
       <r>  -21.0579    1.0000 </r>
       <r>  -21.0572    1.0000 </r>
       <r>  -21.0572    1.0000 </r>
       <r>  -16.2985    1.0000 </r>
       <r>  -16.2985    1.0000 </r>
       <r>  -16.2783    1.0000 </r>
       <r>  -16.2783    1.0000 </r>
       <r>  -16.2783    1.0000 </r>
       <r>  -16.2783    1.0000 </r>
       <r>  -16.2671    1.0000 </r>
       <r>  -16.2671    1.0000 </r>
       <r>  -16.2277    1.0000 </r>
       <r>  -16.2277    1.0000 </r>
       <r>  -16.2097    1.0000 </r>
       <r>  -16.2097    1.0000 </r>
       <r>  -16.2097    1.0000 </r>
       <r>  -16.2097    1.0000 </r>
       <r>  -16.1775    1.0000 </r>
       <r>  -16.1775    1.0000 </r>
       <r>  -16.0839    1.0000 </r>
       <r>  -16.0839    1.0000 </r>
       <r>  -16.0826    1.0000 </r>
       <r>  -16.0826    1.0000 </r>
       <r>  -16.0826    1.0000 </r>
       <r>  -16.0826    1.0000 </r>
       <r>  -16.0825    1.0000 </r>
       <r>  -16.0825    1.0000 </r>
       <r>  -16.0825    1.0000 </r>
       <r>  -16.0825    1.0000 </r>
       <r>  -16.0824    1.0000 </r>
       <r>  -16.0824    1.0000 </r>
       <r>  -16.0824    1.0000 </r>
       <r>  -16.0824    1.0000 </r>
       <r>  -16.0818    1.0000 </r>
       <r>  -16.0818    1.0000 </r>
       <r>  -16.0815    1.0000 </r>
       <r>  -16.0815    1.0000 </r>
       <r>  -16.0815    1.0000 </r>
       <r>  -16.0815    1.0000 </r>
       <r>  -16.0812    1.0000 </r>
       <r>  -16.0812    1.0000 </r>
       <r>  -16.0812    1.0000 </r>
       <r>  -16.0812    1.0000 </r>
       <r>  -14.3183    1.0000 </r>
       <r>  -14.3183    1.0000 </r>
       <r>  -14.1178    1.0000 </r>
       <r>  -14.1178    1.0000 </r>
       <r>  -14.1178    1.0000 </r>
       <r>  -14.1178    1.0000 </r>
       <r>  -13.9889    1.0000 </r>
       <r>  -13.9889    1.0000 </r>
       <r>  -13.9889    1.0000 </r>
       <r>  -13.9889    1.0000 </r>
       <r>  -13.9860    1.0000 </r>
       <r>  -13.9860    1.0000 </r>
       <r>  -13.9860    1.0000 </r>
       <r>  -13.9860    1.0000 </r>
       <r>  -13.9577    1.0000 </r>
       <r>  -13.9577    1.0000 </r>
       <r>  -13.7741    1.0000 </r>
       <r>  -13.7741    1.0000 </r>
       <r>  -13.7344    1.0000 </r>
       <r>  -13.7344    1.0000 </r>
       <r>  -13.7344    1.0000 </r>
       <r>  -13.7344    1.0000 </r>
       <r>  -13.6344    1.0000 </r>
       <r>  -13.6344    1.0000 </r>
       <r>   -7.9739    1.0000 </r>
       <r>   -7.9739    1.0000 </r>
       <r>   -7.4418    1.0000 </r>
       <r>   -7.4418    1.0000 </r>
       <r>   -7.4418    1.0000 </r>
       <r>   -7.4418    1.0000 </r>
       <r>   -7.4191    1.0000 </r>
       <r>   -7.4191    1.0000 </r>
       <r>   -7.4191    1.0000 </r>
       <r>   -7.4191    1.0000 </r>
       <r>   -7.4142    1.0000 </r>
       <r>   -7.4142    1.0000 </r>
       <r>   -7.4067    1.0000 </r>
       <r>   -7.4067    1.0000 </r>
       <r>   -7.4067    1.0000 </r>
       <r>   -7.4067    1.0000 </r>
       <r>   -7.4064    1.0000 </r>
       <r>   -7.4064    1.0000 </r>
       <r>   -7.4064    1.0000 </r>
       <r>   -7.4064    1.0000 </r>
       <r>   -7.4055    1.0000 </r>
       <r>   -7.4055    1.0000 </r>
       <r>   -7.4055    1.0000 </r>
       <r>   -7.4055    1.0000 </r>
       <r>   -7.4014    1.0000 </r>
       <r>   -7.4014    1.0000 </r>
       <r>   -7.3478    1.0000 </r>
       <r>   -7.3478    1.0000 </r>
       <r>   -7.3478    1.0000 </r>
       <r>   -7.3478    1.0000 </r>
       <r>   -6.6882    1.0000 </r>
       <r>   -6.6882    1.0000 </r>
       <r>   -3.3551    1.0000 </r>
       <r>   -3.3551    1.0000 </r>
       <r>   -3.3551    1.0000 </r>
       <r>   -3.3551    1.0000 </r>
       <r>   -3.2330    1.0000 </r>
       <r>   -3.2330    1.0000 </r>
       <r>   -3.2330    1.0000 </r>
       <r>   -3.2330    1.0000 </r>
       <r>   -2.4531    1.0000 </r>
       <r>   -2.4531    1.0000 </r>
       <r>   -2.4218    1.0000 </r>
       <r>   -2.4218    1.0000 </r>
       <r>   -2.4218    1.0000 </r>
       <r>   -2.4218    1.0000 </r>
       <r>   -2.2869    1.0000 </r>
       <r>   -2.2869    1.0000 </r>
       <r>   -2.0380    1.0000 </r>
       <r>   -2.0380    1.0000 </r>
       <r>   -2.0218    1.0000 </r>
       <r>   -2.0218    1.0000 </r>
       <r>   -2.0218    1.0000 </r>
       <r>   -2.0218    1.0000 </r>
       <r>   -1.8430    1.0000 </r>
       <r>   -1.8430    1.0000 </r>
       <r>   -1.8430    1.0000 </r>
       <r>   -1.8430    1.0000 </r>
       <r>   -1.5649    1.0000 </r>
       <r>   -1.5649    1.0000 </r>
       <r>   -1.5649    1.0000 </r>
       <r>   -1.5649    1.0000 </r>
       <r>   -1.3913    1.0000 </r>
       <r>   -1.3913    1.0000 </r>
       <r>   -1.3913    1.0000 </r>
       <r>   -1.3913    1.0000 </r>
       <r>   -1.3487    1.0000 </r>
       <r>   -1.3487    1.0000 </r>
       <r>   -1.3487    1.0000 </r>
       <r>   -1.3487    1.0000 </r>
       <r>   -1.3374    1.0000 </r>
       <r>   -1.3374    1.0000 </r>
       <r>   -1.3170    1.0000 </r>
       <r>   -1.3170    1.0000 </r>
       <r>   -1.3170    1.0000 </r>
       <r>   -1.3170    1.0000 </r>
       <r>   -1.3106    1.0000 </r>
       <r>   -1.3106    1.0000 </r>
       <r>   -1.2555    1.0000 </r>
       <r>   -1.2555    1.0000 </r>
       <r>   -1.2555    1.0000 </r>
       <r>   -1.2555    1.0000 </r>
       <r>   -1.1835    1.0000 </r>
       <r>   -1.1835    1.0000 </r>
       <r>   -1.1835    1.0000 </r>
       <r>   -1.1835    1.0000 </r>
       <r>   -1.1063    1.0000 </r>
       <r>   -1.1063    1.0000 </r>
       <r>   -1.0205    1.0000 </r>
       <r>   -1.0205    1.0000 </r>
       <r>   -1.0205    1.0000 </r>
       <r>   -1.0205    1.0000 </r>
       <r>   -0.9770    1.0000 </r>
       <r>   -0.9770    1.0000 </r>
       <r>   -0.9770    1.0000 </r>
       <r>   -0.9770    1.0000 </r>
       <r>   -0.7562    1.0000 </r>
       <r>   -0.7562    1.0000 </r>
       <r>   -0.3263    1.0000 </r>
       <r>   -0.3263    1.0000 </r>
       <r>   -0.3263    1.0000 </r>
       <r>   -0.3263    1.0000 </r>
       <r>    0.3852    1.0000 </r>
       <r>    0.3852    1.0000 </r>
       <r>    3.1001    0.0000 </r>
       <r>    3.1001    0.0000 </r>
       <r>    3.1001    0.0000 </r>
       <r>    3.1001    0.0000 </r>
       <r>    3.5688    0.0000 </r>
       <r>    3.5688    0.0000 </r>
       <r>    3.5688    0.0000 </r>
       <r>    3.5688    0.0000 </r>
       <r>    4.6310    0.0000 </r>
       <r>    4.6310    0.0000 </r>
       <r>    5.0971    0.0000 </r>
       <r>    5.0971    0.0000 </r>
       <r>    5.0971    0.0000 </r>
       <r>    5.0971    0.0000 </r>
       <r>    5.1162    0.0000 </r>
       <r>    5.1162    0.0000 </r>
       <r>    5.6013    0.0000 </r>
       <r>    5.6013    0.0000 </r>
       <r>    5.9486    0.0000 </r>
       <r>    5.9486    0.0000 </r>
       <r>    6.0063    0.0000 </r>
       <r>    6.0063    0.0000 </r>
       <r>    6.3017    0.0000 </r>
       <r>    6.3017    0.0000 </r>
       <r>    6.3017    0.0000 </r>
       <r>    6.3017    0.0000 </r>
       <r>    6.4911    0.0000 </r>
       <r>    6.4911    0.0000 </r>
       <r>    6.4911    0.0000 </r>
       <r>    6.4912    0.0000 </r>
       <r>    6.5549    0.0000 </r>
       <r>    6.5549    0.0000 </r>
       <r>    6.5554    0.0000 </r>
       <r>    6.5575    0.0000 </r>
       <r>    6.6584    0.0000 </r>
       <r>    6.6592    0.0000 </r>
       <r>    6.6602    0.0000 </r>
       <r>    6.6672    0.0000 </r>
       <r>    6.7091    0.0000 </r>
       <r>    6.7093    0.0000 </r>
      </set>
      <set comment="kpoint 5">
       <r>  -21.0585    1.0000 </r>
       <r>  -21.0585    1.0000 </r>
       <r>  -21.0585    1.0000 </r>
       <r>  -21.0585    1.0000 </r>
       <r>  -21.0576    1.0000 </r>
       <r>  -21.0576    1.0000 </r>
       <r>  -21.0576    1.0000 </r>
       <r>  -21.0576    1.0000 </r>
       <r>  -16.2821    1.0000 </r>
       <r>  -16.2821    1.0000 </r>
       <r>  -16.2821    1.0000 </r>
       <r>  -16.2821    1.0000 </r>
       <r>  -16.2456    1.0000 </r>
       <r>  -16.2456    1.0000 </r>
       <r>  -16.2456    1.0000 </r>
       <r>  -16.2456    1.0000 </r>
       <r>  -16.2454    1.0000 </r>
       <r>  -16.2454    1.0000 </r>
       <r>  -16.2454    1.0000 </r>
       <r>  -16.2454    1.0000 </r>
       <r>  -16.2018    1.0000 </r>
       <r>  -16.2018    1.0000 </r>
       <r>  -16.2018    1.0000 </r>
       <r>  -16.2018    1.0000 </r>
       <r>  -16.0833    1.0000 </r>
       <r>  -16.0833    1.0000 </r>
       <r>  -16.0833    1.0000 </r>
       <r>  -16.0833    1.0000 </r>
       <r>  -16.0825    1.0000 </r>
       <r>  -16.0825    1.0000 </r>
       <r>  -16.0825    1.0000 </r>
       <r>  -16.0825    1.0000 </r>
       <r>  -16.0821    1.0000 </r>
       <r>  -16.0821    1.0000 </r>
       <r>  -16.0821    1.0000 </r>
       <r>  -16.0821    1.0000 </r>
       <r>  -16.0819    1.0000 </r>
       <r>  -16.0819    1.0000 </r>
       <r>  -16.0819    1.0000 </r>
       <r>  -16.0819    1.0000 </r>
       <r>  -16.0819    1.0000 </r>
       <r>  -16.0819    1.0000 </r>
       <r>  -16.0819    1.0000 </r>
       <r>  -16.0819    1.0000 </r>
       <r>  -16.0813    1.0000 </r>
       <r>  -16.0813    1.0000 </r>
       <r>  -16.0813    1.0000 </r>
       <r>  -16.0813    1.0000 </r>
       <r>  -14.2569    1.0000 </r>
       <r>  -14.2569    1.0000 </r>
       <r>  -14.2569    1.0000 </r>
       <r>  -14.2569    1.0000 </r>
       <r>  -14.0839    1.0000 </r>
       <r>  -14.0839    1.0000 </r>
       <r>  -14.0839    1.0000 </r>
       <r>  -14.0839    1.0000 </r>
       <r>  -13.9874    1.0000 </r>
       <r>  -13.9874    1.0000 </r>
       <r>  -13.9874    1.0000 </r>
       <r>  -13.9874    1.0000 </r>
       <r>  -13.8170    1.0000 </r>
       <r>  -13.8170    1.0000 </r>
       <r>  -13.8170    1.0000 </r>
       <r>  -13.8170    1.0000 </r>
       <r>  -13.8128    1.0000 </r>
       <r>  -13.8128    1.0000 </r>
       <r>  -13.8128    1.0000 </r>
       <r>  -13.8128    1.0000 </r>
       <r>  -13.7092    1.0000 </r>
       <r>  -13.7092    1.0000 </r>
       <r>  -13.7092    1.0000 </r>
       <r>  -13.7092    1.0000 </r>
       <r>   -7.7043    1.0000 </r>
       <r>   -7.7043    1.0000 </r>
       <r>   -7.7043    1.0000 </r>
       <r>   -7.7043    1.0000 </r>
       <r>   -7.4306    1.0000 </r>
       <r>   -7.4306    1.0000 </r>
       <r>   -7.4306    1.0000 </r>
       <r>   -7.4306    1.0000 </r>
       <r>   -7.4303    1.0000 </r>
       <r>   -7.4303    1.0000 </r>
       <r>   -7.4303    1.0000 </r>
       <r>   -7.4303    1.0000 </r>
       <r>   -7.4126    1.0000 </r>
       <r>   -7.4126    1.0000 </r>
       <r>   -7.4126    1.0000 </r>
       <r>   -7.4126    1.0000 </r>
       <r>   -7.4040    1.0000 </r>
       <r>   -7.4040    1.0000 </r>
       <r>   -7.4040    1.0000 </r>
       <r>   -7.4040    1.0000 </r>
       <r>   -7.3978    1.0000 </r>
       <r>   -7.3978    1.0000 </r>
       <r>   -7.3978    1.0000 </r>
       <r>   -7.3978    1.0000 </r>
       <r>   -7.3970    1.0000 </r>
       <r>   -7.3970    1.0000 </r>
       <r>   -7.3970    1.0000 </r>
       <r>   -7.3970    1.0000 </r>
       <r>   -7.0745    1.0000 </r>
       <r>   -7.0745    1.0000 </r>
       <r>   -7.0745    1.0000 </r>
       <r>   -7.0745    1.0000 </r>
       <r>   -3.2967    1.0000 </r>
       <r>   -3.2967    1.0000 </r>
       <r>   -3.2967    1.0000 </r>
       <r>   -3.2967    1.0000 </r>
       <r>   -2.6445    1.0000 </r>
       <r>   -2.6445    1.0000 </r>
       <r>   -2.6445    1.0000 </r>
       <r>   -2.6445    1.0000 </r>
       <r>   -2.4996    1.0000 </r>
       <r>   -2.4996    1.0000 </r>
       <r>   -2.4996    1.0000 </r>
       <r>   -2.4996    1.0000 </r>
       <r>   -2.2726    1.0000 </r>
       <r>   -2.2726    1.0000 </r>
       <r>   -2.2726    1.0000 </r>
       <r>   -2.2726    1.0000 </r>
       <r>   -2.2378    1.0000 </r>
       <r>   -2.2378    1.0000 </r>
       <r>   -2.2378    1.0000 </r>
       <r>   -2.2378    1.0000 </r>
       <r>   -2.0034    1.0000 </r>
       <r>   -2.0034    1.0000 </r>
       <r>   -2.0034    1.0000 </r>
       <r>   -2.0034    1.0000 </r>
       <r>   -1.7923    1.0000 </r>
       <r>   -1.7923    1.0000 </r>
       <r>   -1.7923    1.0000 </r>
       <r>   -1.7923    1.0000 </r>
       <r>   -1.5947    1.0000 </r>
       <r>   -1.5947    1.0000 </r>
       <r>   -1.5947    1.0000 </r>
       <r>   -1.5947    1.0000 </r>
       <r>   -1.5670    1.0000 </r>
       <r>   -1.5670    1.0000 </r>
       <r>   -1.5670    1.0000 </r>
       <r>   -1.5670    1.0000 </r>
       <r>   -1.3465    1.0000 </r>
       <r>   -1.3465    1.0000 </r>
       <r>   -1.3465    1.0000 </r>
       <r>   -1.3465    1.0000 </r>
       <r>   -1.2572    1.0000 </r>
       <r>   -1.2572    1.0000 </r>
       <r>   -1.2572    1.0000 </r>
       <r>   -1.2572    1.0000 </r>
       <r>   -1.2487    1.0000 </r>
       <r>   -1.2487    1.0000 </r>
       <r>   -1.2487    1.0000 </r>
       <r>   -1.2487    1.0000 </r>
       <r>   -1.1262    1.0000 </r>
       <r>   -1.1262    1.0000 </r>
       <r>   -1.1262    1.0000 </r>
       <r>   -1.1262    1.0000 </r>
       <r>   -1.0401    1.0000 </r>
       <r>   -1.0401    1.0000 </r>
       <r>   -1.0401    1.0000 </r>
       <r>   -1.0401    1.0000 </r>
       <r>   -1.0111    1.0000 </r>
       <r>   -1.0111    1.0000 </r>
       <r>   -1.0111    1.0000 </r>
       <r>   -1.0111    1.0000 </r>
       <r>   -0.9946    1.0000 </r>
       <r>   -0.9946    1.0000 </r>
       <r>   -0.9946    1.0000 </r>
       <r>   -0.9946    1.0000 </r>
       <r>   -0.8856    1.0000 </r>
       <r>   -0.8856    1.0000 </r>
       <r>   -0.8856    1.0000 </r>
       <r>   -0.8856    1.0000 </r>
       <r>   -0.1903    1.0000 </r>
       <r>   -0.1903    1.0000 </r>
       <r>   -0.1903    1.0000 </r>
       <r>   -0.1903    1.0000 </r>
       <r>    3.3330    0.0000 </r>
       <r>    3.3330    0.0000 </r>
       <r>    3.3330    0.0000 </r>
       <r>    3.3330    0.0000 </r>
       <r>    4.7563    0.0000 </r>
       <r>    4.7563    0.0000 </r>
       <r>    4.7563    0.0000 </r>
       <r>    4.7563    0.0000 </r>
       <r>    4.8654    0.0000 </r>
       <r>    4.8654    0.0000 </r>
       <r>    4.8654    0.0000 </r>
       <r>    4.8654    0.0000 </r>
       <r>    5.1751    0.0000 </r>
       <r>    5.1751    0.0000 </r>
       <r>    5.1751    0.0000 </r>
       <r>    5.1751    0.0000 </r>
       <r>    5.2368    0.0000 </r>
       <r>    5.2368    0.0000 </r>
       <r>    5.2368    0.0000 </r>
       <r>    5.2368    0.0000 </r>
       <r>    5.7756    0.0000 </r>
       <r>    5.7756    0.0000 </r>
       <r>    5.7756    0.0000 </r>
       <r>    5.7756    0.0000 </r>
       <r>    6.2313    0.0000 </r>
       <r>    6.2313    0.0000 </r>
       <r>    6.2313    0.0000 </r>
       <r>    6.2313    0.0000 </r>
       <r>    6.3889    0.0000 </r>
       <r>    6.3889    0.0000 </r>
       <r>    6.3889    0.0000 </r>
       <r>    6.3889    0.0000 </r>
       <r>    6.4208    0.0000 </r>
       <r>    6.4208    0.0000 </r>
       <r>    6.4208    0.0000 </r>
       <r>    6.4208    0.0000 </r>
       <r>    6.5216    0.0000 </r>
       <r>    6.5216    0.0000 </r>
       <r>    6.5216    0.0000 </r>
       <r>    6.5216    0.0000 </r>
      </set>
      <set comment="kpoint 6">
       <r>  -21.0580    1.0000 </r>
       <r>  -21.0580    1.0000 </r>
       <r>  -21.0580    1.0000 </r>
       <r>  -21.0580    1.0000 </r>
       <r>  -21.0580    1.0000 </r>
       <r>  -21.0580    1.0000 </r>
       <r>  -21.0580    1.0000 </r>
       <r>  -21.0580    1.0000 </r>
       <r>  -16.2470    1.0000 </r>
       <r>  -16.2470    1.0000 </r>
       <r>  -16.2470    1.0000 </r>
       <r>  -16.2470    1.0000 </r>
       <r>  -16.2470    1.0000 </r>
       <r>  -16.2470    1.0000 </r>
       <r>  -16.2470    1.0000 </r>
       <r>  -16.2470    1.0000 </r>
       <r>  -16.2412    1.0000 </r>
       <r>  -16.2412    1.0000 </r>
       <r>  -16.2412    1.0000 </r>
       <r>  -16.2412    1.0000 </r>
       <r>  -16.2412    1.0000 </r>
       <r>  -16.2412    1.0000 </r>
       <r>  -16.2412    1.0000 </r>
       <r>  -16.2412    1.0000 </r>
       <r>  -16.0827    1.0000 </r>
       <r>  -16.0827    1.0000 </r>
       <r>  -16.0827    1.0000 </r>
       <r>  -16.0827    1.0000 </r>
       <r>  -16.0827    1.0000 </r>
       <r>  -16.0827    1.0000 </r>
       <r>  -16.0827    1.0000 </r>
       <r>  -16.0827    1.0000 </r>
       <r>  -16.0819    1.0000 </r>
       <r>  -16.0819    1.0000 </r>
       <r>  -16.0819    1.0000 </r>
       <r>  -16.0819    1.0000 </r>
       <r>  -16.0819    1.0000 </r>
       <r>  -16.0819    1.0000 </r>
       <r>  -16.0819    1.0000 </r>
       <r>  -16.0819    1.0000 </r>
       <r>  -16.0819    1.0000 </r>
       <r>  -16.0819    1.0000 </r>
       <r>  -16.0819    1.0000 </r>
       <r>  -16.0819    1.0000 </r>
       <r>  -16.0819    1.0000 </r>
       <r>  -16.0819    1.0000 </r>
       <r>  -16.0819    1.0000 </r>
       <r>  -16.0819    1.0000 </r>
       <r>  -14.2059    1.0000 </r>
       <r>  -14.2059    1.0000 </r>
       <r>  -14.2059    1.0000 </r>
       <r>  -14.2059    1.0000 </r>
       <r>  -14.2059    1.0000 </r>
       <r>  -14.2059    1.0000 </r>
       <r>  -14.2059    1.0000 </r>
       <r>  -14.2059    1.0000 </r>
       <r>  -13.8167    1.0000 </r>
       <r>  -13.8167    1.0000 </r>
       <r>  -13.8167    1.0000 </r>
       <r>  -13.8167    1.0000 </r>
       <r>  -13.8167    1.0000 </r>
       <r>  -13.8167    1.0000 </r>
       <r>  -13.8167    1.0000 </r>
       <r>  -13.8167    1.0000 </r>
       <r>  -13.8099    1.0000 </r>
       <r>  -13.8099    1.0000 </r>
       <r>  -13.8099    1.0000 </r>
       <r>  -13.8099    1.0000 </r>
       <r>  -13.8099    1.0000 </r>
       <r>  -13.8099    1.0000 </r>
       <r>  -13.8099    1.0000 </r>
       <r>  -13.8099    1.0000 </r>
       <r>   -7.4443    1.0000 </r>
       <r>   -7.4443    1.0000 </r>
       <r>   -7.4443    1.0000 </r>
       <r>   -7.4443    1.0000 </r>
       <r>   -7.4443    1.0000 </r>
       <r>   -7.4443    1.0000 </r>
       <r>   -7.4443    1.0000 </r>
       <r>   -7.4443    1.0000 </r>
       <r>   -7.4200    1.0000 </r>
       <r>   -7.4200    1.0000 </r>
       <r>   -7.4200    1.0000 </r>
       <r>   -7.4200    1.0000 </r>
       <r>   -7.4200    1.0000 </r>
       <r>   -7.4200    1.0000 </r>
       <r>   -7.4200    1.0000 </r>
       <r>   -7.4200    1.0000 </r>
       <r>   -7.4099    1.0000 </r>
       <r>   -7.4099    1.0000 </r>
       <r>   -7.4099    1.0000 </r>
       <r>   -7.4099    1.0000 </r>
       <r>   -7.4099    1.0000 </r>
       <r>   -7.4099    1.0000 </r>
       <r>   -7.4099    1.0000 </r>
       <r>   -7.4099    1.0000 </r>
       <r>   -7.3909    1.0000 </r>
       <r>   -7.3909    1.0000 </r>
       <r>   -7.3909    1.0000 </r>
       <r>   -7.3909    1.0000 </r>
       <r>   -7.3909    1.0000 </r>
       <r>   -7.3909    1.0000 </r>
       <r>   -7.3909    1.0000 </r>
       <r>   -7.3909    1.0000 </r>
       <r>   -2.5906    1.0000 </r>
       <r>   -2.5906    1.0000 </r>
       <r>   -2.5906    1.0000 </r>
       <r>   -2.5906    1.0000 </r>
       <r>   -2.5906    1.0000 </r>
       <r>   -2.5906    1.0000 </r>
       <r>   -2.5906    1.0000 </r>
       <r>   -2.5906    1.0000 </r>
       <r>   -2.5669    1.0000 </r>
       <r>   -2.5669    1.0000 </r>
       <r>   -2.5669    1.0000 </r>
       <r>   -2.5669    1.0000 </r>
       <r>   -2.5669    1.0000 </r>
       <r>   -2.5669    1.0000 </r>
       <r>   -2.5669    1.0000 </r>
       <r>   -2.5669    1.0000 </r>
       <r>   -2.1657    1.0000 </r>
       <r>   -2.1657    1.0000 </r>
       <r>   -2.1657    1.0000 </r>
       <r>   -2.1657    1.0000 </r>
       <r>   -2.1657    1.0000 </r>
       <r>   -2.1657    1.0000 </r>
       <r>   -2.1657    1.0000 </r>
       <r>   -2.1657    1.0000 </r>
       <r>   -1.6387    1.0000 </r>
       <r>   -1.6387    1.0000 </r>
       <r>   -1.6387    1.0000 </r>
       <r>   -1.6387    1.0000 </r>
       <r>   -1.6387    1.0000 </r>
       <r>   -1.6387    1.0000 </r>
       <r>   -1.6387    1.0000 </r>
       <r>   -1.6387    1.0000 </r>
       <r>   -1.6183    1.0000 </r>
       <r>   -1.6183    1.0000 </r>
       <r>   -1.6183    1.0000 </r>
       <r>   -1.6183    1.0000 </r>
       <r>   -1.6183    1.0000 </r>
       <r>   -1.6183    1.0000 </r>
       <r>   -1.6183    1.0000 </r>
       <r>   -1.6183    1.0000 </r>
[...]
        <r>  0.0056  0.0001  0.0070 </r>
        <r>  0.0026  0.0006  0.0008 </r>
        <r>  0.0089  0.0000  0.0067 </r>
        <r>  0.0013  0.0007  0.0010 </r>
        <r>  0.0004  0.0006  0.0010 </r>
        <r>  0.0065  0.0001  0.0072 </r>
        <r>  0.0006  0.0051  0.0001 </r>
        <r>  0.0001  0.0131  0.0000 </r>
        <r>  0.0002  0.0121  0.0000 </r>
        <r>  0.0002  0.0037  0.0001 </r>
        <r>  0.0002  0.0143  0.0000 </r>
        <r>  0.0004  0.0034  0.0001 </r>
        <r>  0.0003  0.0046  0.0001 </r>
        <r>  0.0000  0.0094  0.0000 </r>
        <r>  0.0015  0.0011  0.0024 </r>
        <r>  0.0001  0.0034  0.0001 </r>
        <r>  0.0000  0.0082  0.0004 </r>
        <r>  0.0005  0.0003  0.0013 </r>
        <r>  0.0000  0.0065  0.0002 </r>
        <r>  0.0006  0.0005  0.0018 </r>
        <r>  0.0009  0.0008  0.0017 </r>
        <r>  0.0002  0.0036  0.0002 </r>
        <r>  0.0012  0.0015  0.0023 </r>
        <r>  0.0003  0.0071  0.0006 </r>
        <r>  0.0000  0.0053  0.0001 </r>
        <r>  0.0008  0.0005  0.0021 </r>
        <r>  0.0000  0.0068  0.0001 </r>
        <r>  0.0012  0.0006  0.0023 </r>
        <r>  0.0007  0.0007  0.0019 </r>
        <r>  0.0002  0.0047  0.0005 </r>
        <r>  0.0015  0.0004  0.0022 </r>
        <r>  0.0001  0.0050  0.0002 </r>
        <r>  0.0001  0.0056  0.0001 </r>
        <r>  0.0003  0.0006  0.0016 </r>
        <r>  0.0003  0.0076  0.0002 </r>
        <r>  0.0007  0.0010  0.0018 </r>
        <r>  0.0011  0.0001  0.0018 </r>
        <r>  0.0000  0.0033  0.0002 </r>
       </set>
       <set comment="band 208">
        <r>  0.0090  0.0001  0.0068 </r>
        <r>  0.0000  0.0006  0.0010 </r>
        <r>  0.0021  0.0007  0.0007 </r>
        <r>  0.0062  0.0001  0.0072 </r>
        <r>  0.0014  0.0007  0.0008 </r>
        <r>  0.0064  0.0000  0.0071 </r>
        <r>  0.0093  0.0001  0.0068 </r>
        <r>  0.0002  0.0006  0.0009 </r>
        <r>  0.0001  0.0114  0.0000 </r>
        <r>  0.0004  0.0061  0.0001 </r>
        <r>  0.0003  0.0037  0.0001 </r>
        <r>  0.0002  0.0116  0.0000 </r>
        <r>  0.0003  0.0046  0.0001 </r>
        <r>  0.0003  0.0120  0.0000 </r>
        <r>  0.0000  0.0104  0.0000 </r>
        <r>  0.0004  0.0058  0.0001 </r>
        <r>  0.0001  0.0037  0.0001 </r>
        <r>  0.0012  0.0007  0.0020 </r>
        <r>  0.0007  0.0002  0.0016 </r>
        <r>  0.0000  0.0071  0.0003 </r>
        <r>  0.0006  0.0004  0.0016 </r>
        <r>  0.0000  0.0071  0.0002 </r>
        <r>  0.0002  0.0036  0.0002 </r>
        <r>  0.0012  0.0007  0.0021 </r>
        <r>  0.0002  0.0062  0.0004 </r>
        <r>  0.0009  0.0009  0.0019 </r>
        <r>  0.0011  0.0004  0.0025 </r>
        <r>  0.0000  0.0062  0.0001 </r>
        <r>  0.0013  0.0006  0.0027 </r>
        <r>  0.0001  0.0070  0.0001 </r>
        <r>  0.0002  0.0051  0.0004 </r>
        <r>  0.0007  0.0010  0.0017 </r>
        <r>  0.0000  0.0047  0.0002 </r>
        <r>  0.0014  0.0004  0.0020 </r>
        <r>  0.0004  0.0011  0.0017 </r>
        <r>  0.0001  0.0060  0.0001 </r>
        <r>  0.0006  0.0010  0.0017 </r>
        <r>  0.0002  0.0070  0.0002 </r>
        <r>  0.0001  0.0040  0.0003 </r>
        <r>  0.0011  0.0002  0.0018 </r>
       </set>
       <set comment="band 209">
        <r>  0.0000  0.0002  0.0052 </r>
        <r>  0.0002  0.0006  0.0449 </r>
        <r>  0.0001  0.0002  0.0241 </r>
        <r>  0.0001  0.0014  0.0148 </r>
        <r>  0.0000  0.0006  0.0084 </r>
        <r>  0.0001  0.0004  0.0178 </r>
        <r>  0.0001  0.0005  0.0236 </r>
        <r>  0.0000  0.0005  0.0030 </r>
        <r>  0.0000  0.0008  0.0004 </r>
        <r>  0.0000  0.0043  0.0001 </r>
        <r>  0.0000  0.0048  0.0001 </r>
        <r>  0.0000  0.0008  0.0003 </r>
        <r>  0.0000  0.0039  0.0001 </r>
        <r>  0.0000  0.0006  0.0005 </r>
        <r>  0.0000  0.0010  0.0004 </r>
        <r>  0.0000  0.0044  0.0001 </r>
        <r>  0.0000  0.0003  0.0005 </r>
        <r>  0.0001  0.0002  0.0006 </r>
        <r>  0.0004  0.0003  0.0013 </r>
        <r>  0.0000  0.0005  0.0003 </r>
        <r>  0.0006  0.0010  0.0017 </r>
        <r>  0.0007  0.0011  0.0016 </r>
        <r>  0.0004  0.0008  0.0012 </r>
        <r>  0.0005  0.0007  0.0014 </r>
        <r>  0.0001  0.0008  0.0003 </r>
        <r>  0.0002  0.0009  0.0010 </r>
        <r>  0.0002  0.0005  0.0009 </r>
        <r>  0.0002  0.0010  0.0003 </r>
        <r>  0.0001  0.0004  0.0014 </r>
        <r>  0.0000  0.0010  0.0023 </r>
        <r>  0.0000  0.0006  0.0010 </r>
        <r>  0.0000  0.0009  0.0018 </r>
        <r>  0.0004  0.0013  0.0010 </r>
        <r>  0.0010  0.0008  0.0028 </r>
        <r>  0.0006  0.0009  0.0016 </r>
        <r>  0.0002  0.0006  0.0009 </r>
        <r>  0.0000  0.0006  0.0004 </r>
        <r>  0.0003  0.0009  0.0011 </r>
        <r>  0.0007  0.0006  0.0016 </r>
        <r>  0.0001  0.0010  0.0003 </r>
       </set>
       <set comment="band 210">
        <r>  0.0000  0.0013  0.0178 </r>
        <r>  0.0000  0.0002  0.0186 </r>
        <r>  0.0000  0.0006  0.0168 </r>
        <r>  0.0000  0.0005  0.0086 </r>
        <r>  0.0001  0.0003  0.0421 </r>
        <r>  0.0000  0.0004  0.0111 </r>
        <r>  0.0000  0.0007  0.0097 </r>
        <r>  0.0001  0.0002  0.0175 </r>
        <r>  0.0000  0.0042  0.0002 </r>
        <r>  0.0000  0.0031  0.0003 </r>
        <r>  0.0000  0.0009  0.0002 </r>
        <r>  0.0000  0.0011  0.0001 </r>
        <r>  0.0000  0.0005  0.0002 </r>
        <r>  0.0000  0.0021  0.0001 </r>
        <r>  0.0000  0.0042  0.0002 </r>
        <r>  0.0000  0.0028  0.0004 </r>
        <r>  0.0001  0.0009  0.0005 </r>
        <r>  0.0004  0.0004  0.0019 </r>
        <r>  0.0001  0.0006  0.0003 </r>
        <r>  0.0003  0.0009  0.0013 </r>
        <r>  0.0008  0.0014  0.0017 </r>
        <r>  0.0006  0.0010  0.0019 </r>
        <r>  0.0004  0.0006  0.0013 </r>
        <r>  0.0000  0.0011  0.0005 </r>
        <r>  0.0002  0.0016  0.0009 </r>
        <r>  0.0002  0.0007  0.0008 </r>
        <r>  0.0005  0.0006  0.0009 </r>
        <r>  0.0000  0.0005  0.0012 </r>
        <r>  0.0001  0.0005  0.0033 </r>
        <r>  0.0001  0.0003  0.0006 </r>
        <r>  0.0001  0.0015  0.0009 </r>
        <r>  0.0001  0.0006  0.0008 </r>
        <r>  0.0006  0.0008  0.0022 </r>
        <r>  0.0001  0.0013  0.0004 </r>
        <r>  0.0001  0.0004  0.0009 </r>
        <r>  0.0001  0.0006  0.0004 </r>
        <r>  0.0006  0.0006  0.0016 </r>
        <r>  0.0004  0.0005  0.0009 </r>
        <r>  0.0001  0.0009  0.0005 </r>
        <r>  0.0006  0.0004  0.0018 </r>
       </set>
       <set comment="band 211">
        <r>  0.0001  0.0004  0.0477 </r>
        <r>  0.0000  0.0003  0.0059 </r>
        <r>  0.0000  0.0014  0.0052 </r>
        <r>  0.0000  0.0001  0.0078 </r>
        <r>  0.0000  0.0008  0.0112 </r>
        <r>  0.0001  0.0006  0.0197 </r>
        <r>  0.0001  0.0002  0.0227 </r>
        <r>  0.0000  0.0003  0.0221 </r>
        <r>  0.0000  0.0010  0.0001 </r>
        <r>  0.0000  0.0015  0.0004 </r>
        <r>  0.0000  0.0012  0.0004 </r>
        <r>  0.0000  0.0054  0.0001 </r>
        <r>  0.0000  0.0008  0.0005 </r>
        <r>  0.0000  0.0058  0.0001 </r>
        <r>  0.0000  0.0021  0.0001 </r>
        <r>  0.0000  0.0011  0.0001 </r>
        <r>  0.0001  0.0011  0.0003 </r>
        <r>  0.0012  0.0004  0.0029 </r>
        <r>  0.0003  0.0005  0.0009 </r>
        <r>  0.0004  0.0010  0.0009 </r>
        <r>  0.0006  0.0002  0.0017 </r>
        <r>  0.0000  0.0002  0.0003 </r>
        <r>  0.0001  0.0003  0.0005 </r>
        <r>  0.0002  0.0003  0.0005 </r>
        <r>  0.0001  0.0006  0.0026 </r>
        <r>  0.0001  0.0006  0.0016 </r>
        <r>  0.0002  0.0011  0.0013 </r>
        <r>  0.0000  0.0006  0.0005 </r>
        <r>  0.0003  0.0015  0.0011 </r>
        <r>  0.0003  0.0008  0.0012 </r>
        <r>  0.0005  0.0008  0.0010 </r>
        <r>  0.0001  0.0005  0.0002 </r>
        <r>  0.0000  0.0008  0.0012 </r>
        <r>  0.0003  0.0012  0.0013 </r>
        <r>  0.0003  0.0010  0.0015 </r>
        <r>  0.0001  0.0011  0.0008 </r>
        <r>  0.0000  0.0014  0.0012 </r>
        <r>  0.0010  0.0012  0.0028 </r>
        <r>  0.0000  0.0007  0.0008 </r>
        <r>  0.0000  0.0005  0.0003 </r>
       </set>
       <set comment="band 212">
        <r>  0.0000  0.0005  0.0185 </r>
        <r>  0.0000  0.0005  0.0165 </r>
        <r>  0.0001  0.0004  0.0321 </r>
        <r>  0.0000  0.0003  0.0164 </r>
        <r>  0.0000  0.0003  0.0093 </r>
        <r>  0.0001  0.0004  0.0156 </r>
        <r>  0.0000  0.0010  0.0122 </r>
        <r>  0.0000  0.0006  0.0217 </r>
        <r>  0.0000  0.0058  0.0001 </r>
        <r>  0.0000  0.0005  0.0003 </r>
        <r>  0.0000  0.0023  0.0003 </r>
        <r>  0.0000  0.0018  0.0001 </r>
        <r>  0.0000  0.0010  0.0002 </r>
        <r>  0.0000  0.0035  0.0002 </r>
        <r>  0.0000  0.0026  0.0001 </r>
        <r>  0.0000  0.0017  0.0005 </r>
        <r>  0.0004  0.0016  0.0012 </r>
        <r>  0.0003  0.0007  0.0007 </r>
        <r>  0.0014  0.0013  0.0028 </r>
        <r>  0.0001  0.0013  0.0005 </r>
        <r>  0.0001  0.0003  0.0009 </r>
        <r>  0.0003  0.0006  0.0008 </r>
        <r>  0.0001  0.0003  0.0014 </r>
        <r>  0.0001  0.0008  0.0008 </r>
        <r>  0.0000  0.0007  0.0017 </r>
        <r>  0.0000  0.0009  0.0003 </r>
        <r>  0.0001  0.0007  0.0015 </r>
        <r>  0.0002  0.0001  0.0023 </r>
        <r>  0.0004  0.0012  0.0009 </r>
        <r>  0.0006  0.0004  0.0017 </r>
        <r>  0.0003  0.0007  0.0008 </r>
        <r>  0.0000  0.0016  0.0004 </r>
        <r>  0.0003  0.0008  0.0007 </r>
        <r>  0.0003  0.0005  0.0019 </r>
        <r>  0.0007  0.0007  0.0015 </r>
        <r>  0.0001  0.0006  0.0011 </r>
        <r>  0.0003  0.0003  0.0013 </r>
        <r>  0.0001  0.0007  0.0004 </r>
        <r>  0.0002  0.0007  0.0014 </r>
        <r>  0.0001  0.0009  0.0007 </r>
       </set>
       <set comment="band 213">
        <r>  0.0000  0.0003  0.0158 </r>
        <r>  0.0000  0.0012  0.0104 </r>
        <r>  0.0001  0.0002  0.0187 </r>
        <r>  0.0001  0.0004  0.0215 </r>
        <r>  0.0000  0.0005  0.0062 </r>
        <r>  0.0001  0.0001  0.0361 </r>
        <r>  0.0000  0.0005  0.0181 </r>
        <r>  0.0000  0.0006  0.0153 </r>
        <r>  0.0000  0.0010  0.0002 </r>
        <r>  0.0000  0.0054  0.0002 </r>
        <r>  0.0000  0.0022  0.0002 </r>
        <r>  0.0000  0.0038  0.0005 </r>
        <r>  0.0000  0.0046  0.0003 </r>
        <r>  0.0000  0.0015  0.0004 </r>
        <r>  0.0000  0.0027  0.0003 </r>
        <r>  0.0000  0.0046  0.0001 </r>
        <r>  0.0004  0.0006  0.0017 </r>
        <r>  0.0002  0.0020  0.0009 </r>
        <r>  0.0001  0.0008  0.0006 </r>
        <r>  0.0007  0.0006  0.0019 </r>
        <r>  0.0000  0.0008  0.0006 </r>
        <r>  0.0000  0.0012  0.0020 </r>
        <r>  0.0001  0.0006  0.0008 </r>
        <r>  0.0007  0.0001  0.0020 </r>
        <r>  0.0000  0.0003  0.0005 </r>
        <r>  0.0001  0.0002  0.0020 </r>
        <r>  0.0001  0.0006  0.0011 </r>
        <r>  0.0002  0.0008  0.0010 </r>
        <r>  0.0003  0.0005  0.0013 </r>
        <r>  0.0002  0.0014  0.0011 </r>
        <r>  0.0001  0.0007  0.0009 </r>
        <r>  0.0006  0.0005  0.0015 </r>
        <r>  0.0003  0.0004  0.0011 </r>
        <r>  0.0002  0.0005  0.0014 </r>
        <r>  0.0001  0.0004  0.0006 </r>
        <r>  0.0006  0.0004  0.0016 </r>
        <r>  0.0003  0.0008  0.0012 </r>
        <r>  0.0004  0.0007  0.0012 </r>
        <r>  0.0003  0.0002  0.0015 </r>
        <r>  0.0001  0.0004  0.0009 </r>
       </set>
       <set comment="band 214">
        <r>  0.0000  0.0008  0.0031 </r>
        <r>  0.0000  0.0002  0.0382 </r>
        <r>  0.0000  0.0002  0.0227 </r>
        <r>  0.0000  0.0007  0.0110 </r>
        <r>  0.0000  0.0005  0.0252 </r>
        <r>  0.0000  0.0003  0.0098 </r>
        <r>  0.0000  0.0004  0.0195 </r>
        <r>  0.0000  0.0001  0.0146 </r>
        <r>  0.0000  0.0052  0.0003 </r>
        <r>  0.0000  0.0004  0.0003 </r>
        <r>  0.0000  0.0019  0.0004 </r>
        <r>  0.0000  0.0048  0.0001 </r>
        <r>  0.0000  0.0012  0.0003 </r>
        <r>  0.0000  0.0034  0.0001 </r>
        <r>  0.0000  0.0022  0.0001 </r>
        <r>  0.0000  0.0035  0.0004 </r>
        <r>  0.0002  0.0009  0.0016 </r>
        <r>  0.0000  0.0005  0.0010 </r>
        <r>  0.0004  0.0005  0.0017 </r>
        <r>  0.0000  0.0001  0.0006 </r>
        <r>  0.0001  0.0006  0.0015 </r>
        <r>  0.0003  0.0010  0.0006 </r>
        <r>  0.0000  0.0008  0.0012 </r>
        <r>  0.0003  0.0010  0.0010 </r>
        <r>  0.0008  0.0004  0.0014 </r>
        <r>  0.0003  0.0009  0.0012 </r>
        <r>  0.0003  0.0011  0.0010 </r>
        <r>  0.0006  0.0009  0.0016 </r>
        <r>  0.0001  0.0008  0.0005 </r>
        <r>  0.0001  0.0003  0.0007 </r>
        <r>  0.0002  0.0008  0.0019 </r>
        <r>  0.0006  0.0006  0.0019 </r>
        <r>  0.0000  0.0012  0.0005 </r>
        <r>  0.0001  0.0005  0.0012 </r>
        <r>  0.0003  0.0008  0.0025 </r>
        <r>  0.0002  0.0009  0.0014 </r>
        <r>  0.0001  0.0006  0.0006 </r>
        <r>  0.0002  0.0003  0.0013 </r>
        <r>  0.0004  0.0008  0.0013 </r>
        <r>  0.0001  0.0008  0.0008 </r>
       </set>
       <set comment="band 215">
        <r>  0.0000  0.0006  0.0090 </r>
        <r>  0.0000  0.0003  0.0173 </r>
        <r>  0.0000  0.0004  0.0260 </r>
        <r>  0.0001  0.0005  0.0152 </r>
        <r>  0.0000  0.0003  0.0268 </r>
        <r>  0.0000  0.0005  0.0097 </r>
        <r>  0.0000  0.0002  0.0209 </r>
        <r>  0.0000  0.0003  0.0184 </r>
        <r>  0.0000  0.0028  0.0004 </r>
        <r>  0.0000  0.0051  0.0003 </r>
        <r>  0.0000  0.0066  0.0002 </r>
        <r>  0.0000  0.0025  0.0003 </r>
        <r>  0.0000  0.0054  0.0003 </r>
        <r>  0.0000  0.0025  0.0004 </r>
        <r>  0.0000  0.0034  0.0006 </r>
        <r>  0.0000  0.0020  0.0002 </r>
        <r>  0.0005  0.0009  0.0020 </r>
        <r>  0.0001  0.0009  0.0007 </r>
        <r>  0.0005  0.0009  0.0019 </r>
        <r>  0.0006  0.0002  0.0020 </r>
        <r>  0.0005  0.0007  0.0016 </r>
        <r>  0.0002  0.0005  0.0011 </r>
        <r>  0.0005  0.0006  0.0022 </r>
        <r>  0.0003  0.0006  0.0012 </r>
        <r>  0.0006  0.0004  0.0023 </r>
        <r>  0.0000  0.0008  0.0003 </r>
        <r>  0.0004  0.0004  0.0011 </r>
        <r>  0.0002  0.0005  0.0013 </r>
        <r>  0.0001  0.0008  0.0007 </r>
        <r>  0.0004  0.0002  0.0015 </r>
        <r>  0.0003  0.0004  0.0016 </r>
        <r>  0.0001  0.0007  0.0006 </r>
        <r>  0.0002  0.0001  0.0015 </r>
        <r>  0.0000  0.0005  0.0003 </r>
        <r>  0.0001  0.0008  0.0006 </r>
        <r>  0.0000  0.0002  0.0016 </r>
        <r>  0.0000  0.0009  0.0008 </r>
        <r>  0.0000  0.0005  0.0017 </r>
        <r>  0.0002  0.0005  0.0011 </r>
        <r>  0.0001  0.0006  0.0010 </r>
       </set>
       <set comment="band 216">
        <r>  0.0000  0.0003  0.0182 </r>
        <r>  0.0000  0.0003  0.0123 </r>
        <r>  0.0000  0.0004  0.0182 </r>
        <r>  0.0000  0.0004  0.0180 </r>
        <r>  0.0000  0.0002  0.0136 </r>
        <r>  0.0000  0.0002  0.0156 </r>
        <r>  0.0000  0.0004  0.0243 </r>
        <r>  0.0000  0.0005  0.0251 </r>
        <r>  0.0000  0.0030  0.0002 </r>
        <r>  0.0000  0.0018  0.0008 </r>
        <r>  0.0000  0.0023  0.0003 </r>
        <r>  0.0000  0.0060  0.0003 </r>
        <r>  0.0000  0.0028  0.0004 </r>
        <r>  0.0000  0.0055  0.0002 </r>
        <r>  0.0000  0.0079  0.0001 </r>
        <r>  0.0000  0.0029  0.0005 </r>
        <r>  0.0000  0.0002  0.0005 </r>
        <r>  0.0001  0.0006  0.0008 </r>
        <r>  0.0002  0.0005  0.0016 </r>
        <r>  0.0000  0.0007  0.0012 </r>
        <r>  0.0000  0.0004  0.0004 </r>
        <r>  0.0002  0.0006  0.0017 </r>
        <r>  0.0002  0.0005  0.0016 </r>
        <r>  0.0003  0.0007  0.0018 </r>
        <r>  0.0001  0.0003  0.0012 </r>
        <r>  0.0003  0.0003  0.0009 </r>
        <r>  0.0001  0.0006  0.0004 </r>
        <r>  0.0005  0.0002  0.0015 </r>
        <r>  0.0001  0.0007  0.0005 </r>
        <r>  0.0004  0.0002  0.0014 </r>
        <r>  0.0011  0.0002  0.0029 </r>
        <r>  0.0002  0.0011  0.0007 </r>
        <r>  0.0000  0.0004  0.0004 </r>
        <r>  0.0003  0.0003  0.0022 </r>
        <r>  0.0001  0.0002  0.0010 </r>
        <r>  0.0002  0.0013  0.0010 </r>
        <r>  0.0000  0.0003  0.0009 </r>
        <r>  0.0003  0.0013  0.0016 </r>
        <r>  0.0000  0.0005  0.0005 </r>
        <r>  0.0007  0.0004  0.0040 </r>
       </set>
      </set>
     </set>
    </set>
   </array>
  </projected>
 </calculation>
 <structure name="finalpos" >
  <crystal>
   <varray name="basis" >
    <v>      11.73535200       0.00000000       0.00000000 </v>
    <v>       0.00000000      11.73535200       0.00000000 </v>
    <v>       0.00000000       0.00000000      11.73535200 </v>
   </varray>
   <i name="volume">   1616.17491673 </i>
   <varray name="rec_basis" >
    <v>       0.08521261       0.00000000       0.00000000 </v>
    <v>       0.00000000       0.08521261       0.00000000 </v>
    <v>       0.00000000       0.00000000       0.08521261 </v>
   </varray>
  </crystal>
  <varray name="positions" >
   <v>       0.25000000       0.25000000       0.25000000 </v>
   <v>       0.25000000       0.25000000       0.75000000 </v>
   <v>       0.25000000       0.75000000       0.25000000 </v>
   <v>       0.25000000       0.75000000       0.75000000 </v>
   <v>       0.75000000       0.25000000       0.25000000 </v>
   <v>       0.75000000       0.25000000       0.75000000 </v>
   <v>       0.75000000       0.75000000       0.25000000 </v>
   <v>       0.75000000       0.75000000       0.75000000 </v>
   <v>       0.00000000       0.00000000       0.00000000 </v>
   <v>       0.00000000       0.00000000       0.50000000 </v>
   <v>       0.00000000       0.50000000       0.00000000 </v>
   <v>       0.00000000       0.50000000       0.50000000 </v>
   <v>       0.50000000       0.00000000       0.00000000 </v>
   <v>       0.50000000       0.00000000       0.50000000 </v>
   <v>       0.50000000       0.50000000       0.00000000 </v>
   <v>       0.50000000       0.50000000       0.50000000 </v>
   <v>       0.97750000       0.25000000       0.00000000 </v>
   <v>       0.97750000       0.25000000       0.50000000 </v>
   <v>       0.02250000       0.75000000       0.00000000 </v>
   <v>       0.02250000       0.75000000       0.50000000 </v>
   <v>       0.52250000       0.25000000       0.00000000 </v>
   <v>       0.52250000       0.25000000       0.50000000 </v>
   <v>       0.47750000       0.75000000       0.00000000 </v>
   <v>       0.47750000       0.75000000       0.50000000 </v>
   <v>       0.00000000       0.00000000       0.25000000 </v>
   <v>       0.00000000       0.00000000       0.75000000 </v>
   <v>       0.00000000       0.50000000       0.25000000 </v>
   <v>       0.00000000       0.50000000       0.75000000 </v>
   <v>       0.50000000       0.00000000       0.25000000 </v>
   <v>       0.50000000       0.00000000       0.75000000 </v>
   <v>       0.50000000       0.50000000       0.25000000 </v>
   <v>       0.50000000       0.50000000       0.75000000 </v>
   <v>       0.25000000       0.02250000       0.00000000 </v>
   <v>       0.25000000       0.02250000       0.50000000 </v>
   <v>       0.25000000       0.47750000       0.00000000 </v>
   <v>       0.25000000       0.47750000       0.50000000 </v>
   <v>       0.75000000       0.97750000       0.00000000 </v>
   <v>       0.75000000       0.97750000       0.50000000 </v>
   <v>       0.75000000       0.52250000       0.00000000 </v>
   <v>       0.75000000       0.52250000       0.50000000 </v>
  </varray>
 </structure>
</modeling>
