  40  40   1   0
  0.4040437E+02  0.1173535E-08  0.1173535E-08  0.1173535E-08  0.5000000E-15
   1.0000000000000000E-004
  CAR 
 CsPbBr3 cubic bulk                      
      8.15553139    -22.45408634  301      1.03879527      1.00000000
    -22.454  0.0000E+00  0.0000E+00
    -22.352  0.0000E+00  0.0000E+00
    -22.250  0.0000E+00  0.0000E+00
    -22.148  0.0000E+00  0.0000E+00
    -22.046  0.0000E+00  0.0000E+00
    -21.944  0.0000E+00  0.0000E+00
    -21.842  0.0000E+00  0.0000E+00
    -21.740  0.0000E+00  0.0000E+00
    -21.638  0.0000E+00  0.0000E+00
    -21.536  0.0000E+00  0.0000E+00
    -21.434  0.0000E+00  0.0000E+00
    -21.332  0.0000E+00  0.0000E+00
    -21.230  0.0000E+00  0.0000E+00
    -21.128  0.0000E+00  0.0000E+00
    -21.026  0.1568E+03  0.1600E+02
    -20.924  0.0000E+00  0.1600E+02
    -20.822  0.0000E+00  0.1600E+02
    -20.720  0.0000E+00  0.1600E+02
    -20.618  0.0000E+00  0.1600E+02
    -20.515  0.0000E+00  0.1600E+02
    -20.413  0.0000E+00  0.1600E+02
    -20.311  0.0000E+00  0.1600E+02
    -20.209  0.0000E+00  0.1600E+02
    -20.107  0.0000E+00  0.1600E+02
    -20.005  0.0000E+00  0.1600E+02
    -19.903  0.0000E+00  0.1600E+02
    -19.801  0.0000E+00  0.1600E+02
    -19.699  0.0000E+00  0.1600E+02
    -19.597  0.0000E+00  0.1600E+02
    -19.495  0.0000E+00  0.1600E+02
    -19.393  0.0000E+00  0.1600E+02
    -19.291  0.0000E+00  0.1600E+02
    -19.189  0.0000E+00  0.1600E+02
    -19.087  0.0000E+00  0.1600E+02
    -18.985  0.0000E+00  0.1600E+02
    -18.883  0.0000E+00  0.1600E+02
    -18.781  0.0000E+00  0.1600E+02
    -18.679  0.0000E+00  0.1600E+02
    -18.577  0.0000E+00  0.1600E+02
    -18.475  0.0000E+00  0.1600E+02
    -18.373  0.0000E+00  0.1600E+02
    -18.271  0.0000E+00  0.1600E+02
    -18.169  0.0000E+00  0.1600E+02
    -18.067  0.0000E+00  0.1600E+02
    -17.965  0.0000E+00  0.1600E+02
    -17.863  0.0000E+00  0.1600E+02
    -17.761  0.0000E+00  0.1600E+02
    -17.659  0.0000E+00  0.1600E+02
    -17.557  0.0000E+00  0.1600E+02
    -17.455  0.0000E+00  0.1600E+02
    -17.352  0.0000E+00  0.1600E+02
    -17.250  0.0000E+00  0.1600E+02
    -17.148  0.0000E+00  0.1600E+02
    -17.046  0.0000E+00  0.1600E+02
    -16.944  0.0000E+00  0.1600E+02
    -16.842  0.0000E+00  0.1600E+02
    -16.740  0.0000E+00  0.1600E+02
    -16.638  0.0000E+00  0.1600E+02
    -16.536  0.0000E+00  0.1600E+02
    -16.434  0.0000E+00  0.1600E+02
    -16.332  0.5383E-04  0.1600E+02
    -16.230  0.2026E+03  0.3667E+02
    -16.128  0.8575E+02  0.4800E+02
    -16.026  0.4704E+03  0.9600E+02
    -15.924  0.0000E+00  0.9600E+02
    -15.822  0.0000E+00  0.9600E+02
    -15.720  0.0000E+00  0.9600E+02
    -15.618  0.0000E+00  0.9600E+02
    -15.516  0.0000E+00  0.9600E+02
    -15.414  0.0000E+00  0.9600E+02
    -15.312  0.0000E+00  0.9600E+02
    -15.210  0.0000E+00  0.9600E+02
    -15.108  0.0000E+00  0.9600E+02
    -15.006  0.0000E+00  0.9600E+02
    -14.904  0.0000E+00  0.9600E+02
    -14.802  0.0000E+00  0.9600E+02
    -14.700  0.0000E+00  0.9600E+02
    -14.598  0.0000E+00  0.9600E+02
    -14.496  0.0000E+00  0.9600E+02
    -14.394  0.6821E+00  0.9607E+02
    -14.292  0.1470E+02  0.9775E+02
    -14.189  0.4877E+02  0.1027E+03
    -14.087  0.4088E+02  0.1069E+03
    -13.985  0.9941E+02  0.1196E+03
    -13.883  0.2204E+02  0.1237E+03
    -13.781  0.9864E+02  0.1338E+03
    -13.679  0.5880E+02  0.1412E+03
    -13.577  0.2695E+02  0.1440E+03
    -13.475  0.0000E+00  0.1440E+03
    -13.373  0.0000E+00  0.1440E+03
    -13.271  0.0000E+00  0.1440E+03
    -13.169  0.0000E+00  0.1440E+03
    -13.067  0.0000E+00  0.1440E+03
    -12.965  0.0000E+00  0.1440E+03
    -12.863  0.0000E+00  0.1440E+03
    -12.761  0.0000E+00  0.1440E+03
    -12.659  0.0000E+00  0.1440E+03
    -12.557  0.0000E+00  0.1440E+03
    -12.455  0.0000E+00  0.1440E+03
    -12.353  0.0000E+00  0.1440E+03
    -12.251  0.0000E+00  0.1440E+03
    -12.149  0.0000E+00  0.1440E+03
    -12.047  0.0000E+00  0.1440E+03
    -11.945  0.0000E+00  0.1440E+03
    -11.843  0.0000E+00  0.1440E+03
    -11.741  0.0000E+00  0.1440E+03
    -11.639  0.0000E+00  0.1440E+03
    -11.537  0.0000E+00  0.1440E+03
    -11.435  0.0000E+00  0.1440E+03
    -11.333  0.0000E+00  0.1440E+03
    -11.231  0.0000E+00  0.1440E+03
    -11.129  0.0000E+00  0.1440E+03
    -11.026  0.0000E+00  0.1440E+03
    -10.924  0.0000E+00  0.1440E+03
    -10.822  0.0000E+00  0.1440E+03
    -10.720  0.0000E+00  0.1440E+03
    -10.618  0.0000E+00  0.1440E+03
    -10.516  0.0000E+00  0.1440E+03
    -10.414  0.0000E+00  0.1440E+03
    -10.312  0.0000E+00  0.1440E+03
    -10.210  0.0000E+00  0.1440E+03
    -10.108  0.0000E+00  0.1440E+03
    -10.006  0.0000E+00  0.1440E+03
     -9.904  0.0000E+00  0.1440E+03
     -9.802  0.0000E+00  0.1440E+03
     -9.700  0.0000E+00  0.1440E+03
     -9.598  0.0000E+00  0.1440E+03
     -9.496  0.0000E+00  0.1440E+03
     -9.394  0.0000E+00  0.1440E+03
     -9.292  0.0000E+00  0.1440E+03
     -9.190  0.0000E+00  0.1440E+03
     -9.088  0.0000E+00  0.1440E+03
     -8.986  0.0000E+00  0.1440E+03
     -8.884  0.0000E+00  0.1440E+03
     -8.782  0.0000E+00  0.1440E+03
     -8.680  0.0000E+00  0.1440E+03
     -8.578  0.0000E+00  0.1440E+03
     -8.476  0.0000E+00  0.1440E+03
     -8.374  0.0000E+00  0.1440E+03
     -8.272  0.6714E-01  0.1440E+03
     -8.170  0.0000E+00  0.1442E+03
     -8.068  0.0000E+00  0.1442E+03
     -7.966  0.1463E+02  0.1457E+03
     -7.864  0.0000E+00  0.1458E+03
     -7.761  0.1842E-11  0.1458E+03
     -7.659  0.2965E+02  0.1488E+03
     -7.557  0.0000E+00  0.1495E+03
     -7.455  0.2824E+01  0.1498E+03
     -7.353  0.4436E+03  0.2005E+03
     -7.251  0.0000E+00  0.2025E+03
     -7.149  0.0000E+00  0.2025E+03
     -7.047  0.2927E+02  0.2055E+03
     -6.945  0.7351E+01  0.2062E+03
     -6.843  0.0000E+00  0.2062E+03
     -6.741  0.0000E+00  0.2062E+03
     -6.639  0.1470E+02  0.2077E+03
     -6.537  0.0000E+00  0.2078E+03
     -6.435  0.0000E+00  0.2078E+03
     -6.333  0.0000E+00  0.2078E+03
     -6.231  0.7353E-02  0.2078E+03
     -6.129  0.0000E+00  0.2080E+03
     -6.027  0.0000E+00  0.2080E+03
     -5.925  0.0000E+00  0.2080E+03
     -5.823  0.0000E+00  0.2080E+03
     -5.721  0.0000E+00  0.2080E+03
     -5.619  0.0000E+00  0.2080E+03
     -5.517  0.0000E+00  0.2080E+03
     -5.415  0.0000E+00  0.2080E+03
     -5.313  0.0000E+00  0.2080E+03
     -5.211  0.0000E+00  0.2080E+03
     -5.109  0.0000E+00  0.2080E+03
     -5.007  0.0000E+00  0.2080E+03
     -4.905  0.0000E+00  0.2080E+03
     -4.803  0.0000E+00  0.2080E+03
     -4.701  0.0000E+00  0.2080E+03
     -4.598  0.0000E+00  0.2080E+03
     -4.496  0.0000E+00  0.2080E+03
     -4.394  0.0000E+00  0.2080E+03
     -4.292  0.0000E+00  0.2080E+03
     -4.190  0.0000E+00  0.2080E+03
     -4.088  0.0000E+00  0.2080E+03
     -3.986  0.0000E+00  0.2080E+03
     -3.884  0.0000E+00  0.2080E+03
     -3.782  0.0000E+00  0.2080E+03
     -3.680  0.0000E+00  0.2080E+03
     -3.578  0.0000E+00  0.2080E+03
     -3.476  0.5250E-13  0.2080E+03
     -3.374  0.1710E+02  0.2097E+03
     -3.272  0.4415E+02  0.2163E+03
     -3.170  0.1369E+02  0.2196E+03
     -3.068  0.0000E+00  0.2200E+03
     -2.966  0.0000E+00  0.2200E+03
     -2.864  0.0000E+00  0.2200E+03
     -2.762  0.0000E+00  0.2200E+03
     -2.660  0.5845E+00  0.2201E+03
     -2.558  0.3710E+02  0.2268E+03
     -2.456  0.3951E+02  0.2310E+03
     -2.354  0.2940E+02  0.2345E+03
     -2.252  0.4410E+02  0.2390E+03
     -2.150  0.2002E+02  0.2440E+03
     -2.048  0.5837E+01  0.2453E+03
     -1.946  0.6265E+02  0.2526E+03
     -1.844  0.9027E+01  0.2539E+03
     -1.742  0.2940E+02  0.2597E+03
     -1.640  0.5174E+01  0.2603E+03
     -1.538  0.1028E+03  0.2737E+03
     -1.435  0.1490E+02  0.2758E+03
     -1.333  0.8306E+02  0.2872E+03
     -1.231  0.1265E+03  0.3042E+03
     -1.129  0.4172E+02  0.3098E+03
     -1.027  0.6104E+02  0.3205E+03
     -0.925  0.7902E+02  0.3353E+03
     -0.823  0.3430E+02  0.3398E+03
     -0.721  0.2940E+02  0.3427E+03
     -0.619  0.0000E+00  0.3428E+03
     -0.517  0.9920E-08  0.3428E+03
     -0.415  0.7351E+01  0.3435E+03
     -0.313  0.1896E+01  0.3437E+03
     -0.211  0.1179E-06  0.3465E+03
     -0.109  0.2940E+02  0.3495E+03
     -0.007  0.0000E+00  0.3495E+03
      0.095  0.0000E+00  0.3495E+03
      0.197  0.2720E-15  0.3495E+03
      0.299  0.7351E+01  0.3502E+03
      0.401  0.2108E+01  0.3505E+03
      0.503  0.0000E+00  0.3518E+03
      0.605  0.0000E+00  0.3518E+03
      0.707  0.0000E+00  0.3518E+03
      0.809  0.0000E+00  0.3518E+03
      0.911  0.1224E-14  0.3518E+03
      1.013  0.2450E+01  0.3520E+03
      1.115  0.0000E+00  0.3520E+03
      1.217  0.0000E+00  0.3520E+03
      1.319  0.0000E+00  0.3520E+03
      1.421  0.0000E+00  0.3520E+03
      1.523  0.0000E+00  0.3520E+03
      1.625  0.0000E+00  0.3520E+03
      1.728  0.0000E+00  0.3520E+03
      1.830  0.0000E+00  0.3520E+03
      1.932  0.0000E+00  0.3520E+03
      2.034  0.0000E+00  0.3520E+03
      2.136  0.0000E+00  0.3520E+03
      2.238  0.0000E+00  0.3520E+03
      2.340  0.0000E+00  0.3520E+03
      2.442  0.0000E+00  0.3520E+03
      2.544  0.0000E+00  0.3520E+03
      2.646  0.0000E+00  0.3520E+03
      2.748  0.0000E+00  0.3520E+03
      2.850  0.7145E+01  0.3527E+03
      2.952  0.0000E+00  0.3528E+03
      3.054  0.2776E-05  0.3528E+03
      3.156  0.2940E+02  0.3558E+03
      3.258  0.0000E+00  0.3558E+03
      3.360  0.4313E+02  0.3602E+03
      3.462  0.0000E+00  0.3602E+03
      3.564  0.1730E+01  0.3604E+03
      3.666  0.0000E+00  0.3632E+03
      3.768  0.7251E-08  0.3633E+03
      3.870  0.7351E+01  0.3640E+03
      3.972  0.0000E+00  0.3640E+03
      4.074  0.0000E+00  0.3640E+03
      4.176  0.0000E+00  0.3640E+03
      4.278  0.0000E+00  0.3640E+03
      4.380  0.0000E+00  0.3640E+03
      4.482  0.0000E+00  0.3640E+03
      4.584  0.3101E+01  0.3643E+03
      4.686  0.0000E+00  0.3658E+03
      4.788  0.2939E+02  0.3687E+03
      4.891  0.2986E+02  0.3718E+03
      4.993  0.3298E+02  0.3756E+03
      5.095  0.4900E+02  0.3807E+03
      5.197  0.2845E+02  0.3837E+03
      5.299  0.0000E+00  0.3882E+03
      5.401  0.0000E+00  0.3882E+03
      5.503  0.0000E+00  0.3882E+03
      5.605  0.1960E+02  0.3902E+03
      5.707  0.0000E+00  0.3902E+03
      5.809  0.2935E+02  0.3932E+03
      5.911  0.4997E-11  0.3933E+03
      6.013  0.2312E+02  0.3956E+03
      6.115  0.1962E+02  0.3990E+03
      6.217  0.7351E+01  0.4000E+03
      6.319  0.2950E+02  0.4030E+03
      6.421  0.5111E+02  0.4092E+03
      6.523  0.8331E+02  0.4187E+03
      6.625  0.7499E+02  0.4264E+03
      6.727  0.2820E+02  0.4311E+03
      6.829  0.4900E+01  0.4320E+03
      6.931  0.0000E+00  0.4320E+03
      7.033  0.0000E+00  0.4320E+03
      7.135  0.0000E+00  0.4320E+03
      7.237  0.0000E+00  0.4320E+03
      7.339  0.0000E+00  0.4320E+03
      7.441  0.0000E+00  0.4320E+03
      7.543  0.0000E+00  0.4320E+03
      7.645  0.0000E+00  0.4320E+03
      7.747  0.0000E+00  0.4320E+03
      7.849  0.0000E+00  0.4320E+03
      7.951  0.0000E+00  0.4320E+03
      8.053  0.0000E+00  0.4320E+03
      8.156  0.0000E+00  0.4320E+03
      8.15553139    -22.45408634  301      1.03879527      1.00000000
    -22.454  0.0000E+00  0.0000E+00  0.0000E+00
    -22.352  0.0000E+00  0.0000E+00  0.0000E+00
    -22.250  0.0000E+00  0.0000E+00  0.0000E+00
    -22.148  0.0000E+00  0.0000E+00  0.0000E+00
    -22.046  0.0000E+00  0.0000E+00  0.0000E+00
    -21.944  0.0000E+00  0.0000E+00  0.0000E+00
    -21.842  0.0000E+00  0.0000E+00  0.0000E+00
    -21.740  0.0000E+00  0.0000E+00  0.0000E+00
    -21.638  0.0000E+00  0.0000E+00  0.0000E+00
    -21.536  0.0000E+00  0.0000E+00  0.0000E+00
    -21.434  0.0000E+00  0.0000E+00  0.0000E+00
    -21.332  0.0000E+00  0.0000E+00  0.0000E+00
    -21.230  0.0000E+00  0.0000E+00  0.0000E+00
    -21.128  0.0000E+00  0.0000E+00  0.0000E+00
    -21.026  0.1740E+02  0.3447E-06  0.6631E-06
    -20.924  0.0000E+00  0.0000E+00  0.0000E+00
    -20.822  0.0000E+00  0.0000E+00  0.0000E+00
    -20.720  0.0000E+00  0.0000E+00  0.0000E+00
    -20.618  0.0000E+00  0.0000E+00  0.0000E+00
    -20.515  0.0000E+00  0.0000E+00  0.0000E+00
    -20.413  0.0000E+00  0.0000E+00  0.0000E+00
    -20.311  0.0000E+00  0.0000E+00  0.0000E+00
    -20.209  0.0000E+00  0.0000E+00  0.0000E+00
    -20.107  0.0000E+00  0.0000E+00  0.0000E+00
    -20.005  0.0000E+00  0.0000E+00  0.0000E+00
    -19.903  0.0000E+00  0.0000E+00  0.0000E+00
    -19.801  0.0000E+00  0.0000E+00  0.0000E+00
    -19.699  0.0000E+00  0.0000E+00  0.0000E+00
    -19.597  0.0000E+00  0.0000E+00  0.0000E+00
    -19.495  0.0000E+00  0.0000E+00  0.0000E+00
    -19.393  0.0000E+00  0.0000E+00  0.0000E+00
    -19.291  0.0000E+00  0.0000E+00  0.0000E+00
    -19.189  0.0000E+00  0.0000E+00  0.0000E+00
    -19.087  0.0000E+00  0.0000E+00  0.0000E+00
    -18.985  0.0000E+00  0.0000E+00  0.0000E+00
    -18.883  0.0000E+00  0.0000E+00  0.0000E+00
    -18.781  0.0000E+00  0.0000E+00  0.0000E+00
    -18.679  0.0000E+00  0.0000E+00  0.0000E+00
    -18.577  0.0000E+00  0.0000E+00  0.0000E+00
    -18.475  0.0000E+00  0.0000E+00  0.0000E+00
    -18.373  0.0000E+00  0.0000E+00  0.0000E+00
    -18.271  0.0000E+00  0.0000E+00  0.0000E+00
    -18.169  0.0000E+00  0.0000E+00  0.0000E+00
    -18.067  0.0000E+00  0.0000E+00  0.0000E+00
    -17.965  0.0000E+00  0.0000E+00  0.0000E+00
    -17.863  0.0000E+00  0.0000E+00  0.0000E+00
    -17.761  0.0000E+00  0.0000E+00  0.0000E+00
    -17.659  0.0000E+00  0.0000E+00  0.0000E+00
    -17.557  0.0000E+00  0.0000E+00  0.0000E+00
    -17.455  0.0000E+00  0.0000E+00  0.0000E+00
    -17.352  0.0000E+00  0.0000E+00  0.0000E+00
    -17.250  0.0000E+00  0.0000E+00  0.0000E+00
    -17.148  0.0000E+00  0.0000E+00  0.0000E+00
    -17.046  0.0000E+00  0.0000E+00  0.0000E+00
    -16.944  0.0000E+00  0.0000E+00  0.0000E+00
    -16.842  0.0000E+00  0.0000E+00  0.0000E+00
    -16.740  0.0000E+00  0.0000E+00  0.0000E+00
    -16.638  0.0000E+00  0.0000E+00  0.0000E+00
    -16.536  0.0000E+00  0.0000E+00  0.0000E+00
    -16.434  0.0000E+00  0.0000E+00  0.0000E+00
    -16.332  0.7827E-11  0.3895E-11  0.2161E-11
    -16.230  0.1576E-04  0.2760E-04  0.8889E-05
    -16.128  0.3778E-06  0.1998E-04  0.8619E-06
    -16.026  0.2722E-04  0.2099E-04  0.2114E-05
    -15.924  0.0000E+00  0.0000E+00  0.0000E+00
    -15.822  0.0000E+00  0.0000E+00  0.0000E+00
    -15.720  0.0000E+00  0.0000E+00  0.0000E+00
    -15.618  0.0000E+00  0.0000E+00  0.0000E+00
    -15.516  0.0000E+00  0.0000E+00  0.0000E+00
    -15.414  0.0000E+00  0.0000E+00  0.0000E+00
    -15.312  0.0000E+00  0.0000E+00  0.0000E+00
    -15.210  0.0000E+00  0.0000E+00  0.0000E+00
    -15.108  0.0000E+00  0.0000E+00  0.0000E+00
    -15.006  0.0000E+00  0.0000E+00  0.0000E+00
    -14.904  0.0000E+00  0.0000E+00  0.0000E+00
    -14.802  0.0000E+00  0.0000E+00  0.0000E+00
    -14.700  0.0000E+00  0.0000E+00  0.0000E+00
    -14.598  0.0000E+00  0.0000E+00  0.0000E+00
    -14.496  0.0000E+00  0.0000E+00  0.0000E+00
    -14.394  0.6476E-04  0.3850E-07  0.2607E-07
    -14.292  0.9331E-03  0.2929E-03  0.2043E-05
    -14.189  0.1670E-02  0.1647E-02  0.3350E-04
    -14.087  0.4754E-05  0.2469E-02  0.3964E-04
    -13.985  0.8132E-03  0.1952E-02  0.1287E-03
    -13.883  0.7712E-06  0.5661E-04  0.1134E-03
    -13.781  0.1235E-03  0.1463E-02  0.1914E-03
    -13.679  0.1556E-03  0.2124E-03  0.7576E-04
    -13.577  0.4387E-04  0.9844E-04  0.2784E-04
    -13.475  0.0000E+00  0.0000E+00  0.0000E+00
    -13.373  0.0000E+00  0.0000E+00  0.0000E+00
    -13.271  0.0000E+00  0.0000E+00  0.0000E+00
    -13.169  0.0000E+00  0.0000E+00  0.0000E+00
    -13.067  0.0000E+00  0.0000E+00  0.0000E+00
    -12.965  0.0000E+00  0.0000E+00  0.0000E+00
    -12.863  0.0000E+00  0.0000E+00  0.0000E+00
    -12.761  0.0000E+00  0.0000E+00  0.0000E+00
    -12.659  0.0000E+00  0.0000E+00  0.0000E+00
    -12.557  0.0000E+00  0.0000E+00  0.0000E+00
    -12.455  0.0000E+00  0.0000E+00  0.0000E+00
    -12.353  0.0000E+00  0.0000E+00  0.0000E+00
    -12.251  0.0000E+00  0.0000E+00  0.0000E+00
    -12.149  0.0000E+00  0.0000E+00  0.0000E+00
    -12.047  0.0000E+00  0.0000E+00  0.0000E+00
    -11.945  0.0000E+00  0.0000E+00  0.0000E+00
    -11.843  0.0000E+00  0.0000E+00  0.0000E+00
    -11.741  0.0000E+00  0.0000E+00  0.0000E+00
    -11.639  0.0000E+00  0.0000E+00  0.0000E+00
    -11.537  0.0000E+00  0.0000E+00  0.0000E+00
    -11.435  0.0000E+00  0.0000E+00  0.0000E+00
    -11.333  0.0000E+00  0.0000E+00  0.0000E+00
    -11.231  0.0000E+00  0.0000E+00  0.0000E+00
    -11.129  0.0000E+00  0.0000E+00  0.0000E+00
    -11.026  0.0000E+00  0.0000E+00  0.0000E+00
    -10.924  0.0000E+00  0.0000E+00  0.0000E+00
    -10.822  0.0000E+00  0.0000E+00  0.0000E+00
    -10.720  0.0000E+00  0.0000E+00  0.0000E+00
    -10.618  0.0000E+00  0.0000E+00  0.0000E+00
    -10.516  0.0000E+00  0.0000E+00  0.0000E+00
    -10.414  0.0000E+00  0.0000E+00  0.0000E+00
    -10.312  0.0000E+00  0.0000E+00  0.0000E+00
    -10.210  0.0000E+00  0.0000E+00  0.0000E+00
    -10.108  0.0000E+00  0.0000E+00  0.0000E+00
    -10.006  0.0000E+00  0.0000E+00  0.0000E+00
     -9.904  0.0000E+00  0.0000E+00  0.0000E+00
     -9.802  0.0000E+00  0.0000E+00  0.0000E+00
     -9.700  0.0000E+00  0.0000E+00  0.0000E+00
     -9.598  0.0000E+00  0.0000E+00  0.0000E+00
     -9.496  0.0000E+00  0.0000E+00  0.0000E+00
     -9.394  0.0000E+00  0.0000E+00  0.0000E+00
     -9.292  0.0000E+00  0.0000E+00  0.0000E+00
     -9.190  0.0000E+00  0.0000E+00  0.0000E+00
     -9.088  0.0000E+00  0.0000E+00  0.0000E+00
     -8.986  0.0000E+00  0.0000E+00  0.0000E+00
     -8.884  0.0000E+00  0.0000E+00  0.0000E+00
     -8.782  0.0000E+00  0.0000E+00  0.0000E+00
     -8.680  0.0000E+00  0.0000E+00  0.0000E+00
     -8.578  0.0000E+00  0.0000E+00  0.0000E+00
     -8.476  0.0000E+00  0.0000E+00  0.0000E+00
     -8.374  0.0000E+00  0.0000E+00  0.0000E+00
     -8.272  0.1090E-21  0.4954E-08  0.1989E-10
     -8.170  0.0000E+00  0.0000E+00  0.0000E+00
     -8.068  0.0000E+00  0.0000E+00  0.0000E+00
     -7.966  0.2451E-07  0.9837E-03  0.1875E-05
     -7.864  0.0000E+00  0.0000E+00  0.0000E+00
     -7.761  0.5701E-20  0.1213E-14  0.8153E-18
     -7.659  0.7379E-07  0.1700E-01  0.1419E-04
     -7.557  0.0000E+00  0.0000E+00  0.0000E+00
     -7.455  0.2439E-06  0.2353E+00  0.3361E-06
     -7.353  0.2353E-04  0.4110E+02  0.4516E-04
     -7.251  0.0000E+00  0.0000E+00  0.0000E+00
     -7.149  0.0000E+00  0.0000E+00  0.0000E+00
     -7.047  0.3126E-04  0.6212E-02  0.2917E-04
     -6.945  0.5719E-07  0.1101E-02  0.2531E-05
     -6.843  0.0000E+00  0.0000E+00  0.0000E+00
     -6.741  0.0000E+00  0.0000E+00  0.0000E+00
     -6.639  0.2314E-04  0.1687E-02  0.3320E-05
     -6.537  0.0000E+00  0.0000E+00  0.0000E+00
     -6.435  0.0000E+00  0.0000E+00  0.0000E+00
     -6.333  0.0000E+00  0.0000E+00  0.0000E+00
     -6.231  0.1465E-07  0.2393E-07  0.7205E-09
     -6.129  0.0000E+00  0.0000E+00  0.0000E+00
     -6.027  0.0000E+00  0.0000E+00  0.0000E+00
     -5.925  0.0000E+00  0.0000E+00  0.0000E+00
     -5.823  0.0000E+00  0.0000E+00  0.0000E+00
     -5.721  0.0000E+00  0.0000E+00  0.0000E+00
     -5.619  0.0000E+00  0.0000E+00  0.0000E+00
     -5.517  0.0000E+00  0.0000E+00  0.0000E+00
     -5.415  0.0000E+00  0.0000E+00  0.0000E+00
     -5.313  0.0000E+00  0.0000E+00  0.0000E+00
     -5.211  0.0000E+00  0.0000E+00  0.0000E+00
     -5.109  0.0000E+00  0.0000E+00  0.0000E+00
     -5.007  0.0000E+00  0.0000E+00  0.0000E+00
     -4.905  0.0000E+00  0.0000E+00  0.0000E+00
     -4.803  0.0000E+00  0.0000E+00  0.0000E+00
     -4.701  0.0000E+00  0.0000E+00  0.0000E+00
     -4.598  0.0000E+00  0.0000E+00  0.0000E+00
     -4.496  0.0000E+00  0.0000E+00  0.0000E+00
     -4.394  0.0000E+00  0.0000E+00  0.0000E+00
     -4.292  0.0000E+00  0.0000E+00  0.0000E+00
     -4.190  0.0000E+00  0.0000E+00  0.0000E+00
     -4.088  0.0000E+00  0.0000E+00  0.0000E+00
     -3.986  0.0000E+00  0.0000E+00  0.0000E+00
     -3.884  0.0000E+00  0.0000E+00  0.0000E+00
     -3.782  0.0000E+00  0.0000E+00  0.0000E+00
     -3.680  0.0000E+00  0.0000E+00  0.0000E+00
     -3.578  0.0000E+00  0.0000E+00  0.0000E+00
     -3.476  0.5253E-25  0.4601E-16  0.2995E-19
     -3.374  0.9855E-07  0.1059E-01  0.2022E-03
     -3.272  0.2191E-06  0.6779E-02  0.1423E-02
     -3.170  0.1322E-17  0.2519E-04  0.3303E-03
     -3.068  0.0000E+00  0.0000E+00  0.0000E+00
     -2.966  0.0000E+00  0.0000E+00  0.0000E+00
     -2.864  0.0000E+00  0.0000E+00  0.0000E+00
     -2.762  0.0000E+00  0.0000E+00  0.0000E+00
     -2.660  0.6447E-06  0.3835E-03  0.1622E-05
     -2.558  0.4862E-04  0.1663E-01  0.5006E-03
     -2.456  0.6404E-03  0.8548E-02  0.1142E-02
     -2.354  0.6226E-04  0.5885E-02  0.1689E-02
     -2.252  0.4865E-02  0.7007E-02  0.1658E-02
     -2.150  0.4791E-02  0.6378E-03  0.2103E-02
     -2.048  0.8364E-03  0.8358E-02  0.3675E-03
     -1.946  0.2253E-01  0.3382E-01  0.3272E-02
     -1.844  0.3135E-02  0.4754E-02  0.1360E-03
     -1.742  0.8580E-04  0.5503E-01  0.2715E-02
     -1.640  0.1219E-04  0.6873E-02  0.6542E-03
     -1.538  0.2580E-02  0.1007E+00  0.1188E-01
     -1.435  0.2124E-06  0.1855E-02  0.4112E-02
     -1.333  0.2414E-03  0.1740E-01  0.1224E-01
     -1.231  0.3208E-03  0.6086E-01  0.9908E-02
     -1.129  0.1157E-02  0.2539E-01  0.2502E-02
     -1.027  0.1646E-02  0.9316E-02  0.6314E-02
     -0.925  0.8513E-03  0.1619E-01  0.6671E-02
     -0.823  0.3259E-03  0.1232E-02  0.1646E-02
     -0.721  0.1077E-03  0.1848E-02  0.1600E-02
     -0.619  0.0000E+00  0.0000E+00  0.0000E+00
     -0.517  0.3950E-16  0.4298E-12  0.3446E-13
     -0.415  0.4903E-06  0.3175E-03  0.3245E-04
     -0.313  0.4312E-06  0.1395E-03  0.2298E-04
     -0.211  0.6094E-15  0.6773E-11  0.8878E-12
     -0.109  0.1716E-05  0.1468E-02  0.1244E-03
     -0.007  0.0000E+00  0.0000E+00  0.0000E+00
      0.095  0.0000E+00  0.0000E+00  0.0000E+00
      0.197  0.2632E-31  0.8230E-21  0.1703E-19
      0.299  0.2070E-07  0.2963E-04  0.4567E-03
      0.401  0.1811E-07  0.5481E-05  0.3141E-04
      0.503  0.0000E+00  0.0000E+00  0.0000E+00
      0.605  0.0000E+00  0.0000E+00  0.0000E+00
      0.707  0.0000E+00  0.0000E+00  0.0000E+00
      0.809  0.0000E+00  0.0000E+00  0.0000E+00
      0.911  0.9001E-31  0.2134E-22  0.4256E-22
      1.013  0.1802E-15  0.4271E-07  0.8519E-07
      1.115  0.0000E+00  0.0000E+00  0.0000E+00
      1.217  0.0000E+00  0.0000E+00  0.0000E+00
      1.319  0.0000E+00  0.0000E+00  0.0000E+00
      1.421  0.0000E+00  0.0000E+00  0.0000E+00
      1.523  0.0000E+00  0.0000E+00  0.0000E+00
      1.625  0.0000E+00  0.0000E+00  0.0000E+00
      1.728  0.0000E+00  0.0000E+00  0.0000E+00
      1.830  0.0000E+00  0.0000E+00  0.0000E+00
      1.932  0.0000E+00  0.0000E+00  0.0000E+00
      2.034  0.0000E+00  0.0000E+00  0.0000E+00
      2.136  0.0000E+00  0.0000E+00  0.0000E+00
      2.238  0.0000E+00  0.0000E+00  0.0000E+00
      2.340  0.0000E+00  0.0000E+00  0.0000E+00
      2.442  0.0000E+00  0.0000E+00  0.0000E+00
      2.544  0.0000E+00  0.0000E+00  0.0000E+00
      2.646  0.0000E+00  0.0000E+00  0.0000E+00
      2.748  0.0000E+00  0.0000E+00  0.0000E+00
      2.850  0.8038E-06  0.6891E-06  0.2538E-02
      2.952  0.0000E+00  0.0000E+00  0.0000E+00
      3.054  0.3274E-10  0.3333E-10  0.4871E-09
      3.156  0.1370E-03  0.1919E-03  0.5101E-02
      3.258  0.0000E+00  0.0000E+00  0.0000E+00
      3.360  0.3441E-03  0.8369E-03  0.3203E-02
      3.462  0.0000E+00  0.0000E+00  0.0000E+00
      3.564  0.2203E-04  0.5131E-04  0.2178E-04
      3.666  0.0000E+00  0.0000E+00  0.0000E+00
      3.768  0.1715E-12  0.1220E-12  0.1333E-12
      3.870  0.1522E-03  0.1573E-03  0.1151E-03
      3.972  0.0000E+00  0.0000E+00  0.0000E+00
      4.074  0.0000E+00  0.0000E+00  0.0000E+00
      4.176  0.0000E+00  0.0000E+00  0.0000E+00
      4.278  0.0000E+00  0.0000E+00  0.0000E+00
      4.380  0.0000E+00  0.0000E+00  0.0000E+00
      4.482  0.0000E+00  0.0000E+00  0.0000E+00
      4.584  0.1402E-01  0.1240E-05  0.9182E-03
      4.686  0.0000E+00  0.0000E+00  0.0000E+00
      4.788  0.3265E-03  0.2010E-03  0.1203E-01
      4.891  0.4113E-06  0.7668E-02  0.2812E-01
      4.993  0.2388E-02  0.2408E-02  0.1722E-01
      5.095  0.6917E-02  0.1513E-01  0.1393E-01
      5.197  0.8006E-01  0.2244E-01  0.5010E-02
      5.299  0.0000E+00  0.0000E+00  0.0000E+00
      5.401  0.0000E+00  0.0000E+00  0.0000E+00
      5.503  0.0000E+00  0.0000E+00  0.0000E+00
      5.605  0.9877E-02  0.2942E-02  0.7358E-01
      5.707  0.0000E+00  0.0000E+00  0.0000E+00
      5.809  0.1123E+00  0.2823E-01  0.6011E-01
      5.911  0.2723E-16  0.5053E-14  0.6766E-13
      6.013  0.1104E-01  0.1507E-01  0.3185E+00
      6.115  0.8660E-01  0.7109E-02  0.7218E-01
      6.217  0.1709E-06  0.6009E-05  0.8066E-03
      6.319  0.1950E-01  0.2882E-02  0.4902E+00
      6.421  0.2091E-01  0.2621E-01  0.4325E+00
      6.523  0.2282E+00  0.3710E-01  0.5557E+00
      6.625  0.7720E-01  0.7772E-01  0.7289E+00
      6.727  0.3032E-01  0.5351E-01  0.3848E+00
      6.829  0.2246E-05  0.1308E-03  0.1091E+00
      6.931  0.0000E+00  0.0000E+00  0.0000E+00
      7.033  0.0000E+00  0.0000E+00  0.0000E+00
      7.135  0.0000E+00  0.0000E+00  0.0000E+00
      7.237  0.0000E+00  0.0000E+00  0.0000E+00
      7.339  0.0000E+00  0.0000E+00  0.0000E+00
      7.441  0.0000E+00  0.0000E+00  0.0000E+00
      7.543  0.0000E+00  0.0000E+00  0.0000E+00
      7.645  0.0000E+00  0.0000E+00  0.0000E+00
      7.747  0.0000E+00  0.0000E+00  0.0000E+00
      7.849  0.0000E+00  0.0000E+00  0.0000E+00
      7.951  0.0000E+00  0.0000E+00  0.0000E+00
      8.053  0.0000E+00  0.0000E+00  0.0000E+00
      8.156  0.0000E+00  0.0000E+00  0.0000E+00
      8.15553139    -22.45408634  301      1.03879527      1.00000000
    -22.454  0.0000E+00  0.0000E+00  0.0000E+00
    -22.352  0.0000E+00  0.0000E+00  0.0000E+00
    -22.250  0.0000E+00  0.0000E+00  0.0000E+00
    -22.148  0.0000E+00  0.0000E+00  0.0000E+00
    -22.046  0.0000E+00  0.0000E+00  0.0000E+00
    -21.944  0.0000E+00  0.0000E+00  0.0000E+00
    -21.842  0.0000E+00  0.0000E+00  0.0000E+00
    -21.740  0.0000E+00  0.0000E+00  0.0000E+00
    -21.638  0.0000E+00  0.0000E+00  0.0000E+00
    -21.536  0.0000E+00  0.0000E+00  0.0000E+00
    -21.434  0.0000E+00  0.0000E+00  0.0000E+00
    -21.332  0.0000E+00  0.0000E+00  0.0000E+00
    -21.230  0.0000E+00  0.0000E+00  0.0000E+00
    -21.128  0.0000E+00  0.0000E+00  0.0000E+00
    -21.026  0.1740E+02  0.3447E-06  0.6631E-06
    -20.924  0.0000E+00  0.0000E+00  0.0000E+00
    -20.822  0.0000E+00  0.0000E+00  0.0000E+00
    -20.720  0.0000E+00  0.0000E+00  0.0000E+00
    -20.618  0.0000E+00  0.0000E+00  0.0000E+00
    -20.515  0.0000E+00  0.0000E+00  0.0000E+00
    -20.413  0.0000E+00  0.0000E+00  0.0000E+00
    -20.311  0.0000E+00  0.0000E+00  0.0000E+00
    -20.209  0.0000E+00  0.0000E+00  0.0000E+00
    -20.107  0.0000E+00  0.0000E+00  0.0000E+00
    -20.005  0.0000E+00  0.0000E+00  0.0000E+00
    -19.903  0.0000E+00  0.0000E+00  0.0000E+00
    -19.801  0.0000E+00  0.0000E+00  0.0000E+00
    -19.699  0.0000E+00  0.0000E+00  0.0000E+00
    -19.597  0.0000E+00  0.0000E+00  0.0000E+00
    -19.495  0.0000E+00  0.0000E+00  0.0000E+00
    -19.393  0.0000E+00  0.0000E+00  0.0000E+00
    -19.291  0.0000E+00  0.0000E+00  0.0000E+00
    -19.189  0.0000E+00  0.0000E+00  0.0000E+00
    -19.087  0.0000E+00  0.0000E+00  0.0000E+00
    -18.985  0.0000E+00  0.0000E+00  0.0000E+00
    -18.883  0.0000E+00  0.0000E+00  0.0000E+00
    -18.781  0.0000E+00  0.0000E+00  0.0000E+00
    -18.679  0.0000E+00  0.0000E+00  0.0000E+00
    -18.577  0.0000E+00  0.0000E+00  0.0000E+00
    -18.475  0.0000E+00  0.0000E+00  0.0000E+00
    -18.373  0.0000E+00  0.0000E+00  0.0000E+00
    -18.271  0.0000E+00  0.0000E+00  0.0000E+00
    -18.169  0.0000E+00  0.0000E+00  0.0000E+00
    -18.067  0.0000E+00  0.0000E+00  0.0000E+00
    -17.965  0.0000E+00  0.0000E+00  0.0000E+00
    -17.863  0.0000E+00  0.0000E+00  0.0000E+00
    -17.761  0.0000E+00  0.0000E+00  0.0000E+00
    -17.659  0.0000E+00  0.0000E+00  0.0000E+00
    -17.557  0.0000E+00  0.0000E+00  0.0000E+00
    -17.455  0.0000E+00  0.0000E+00  0.0000E+00
    -17.352  0.0000E+00  0.0000E+00  0.0000E+00
    -17.250  0.0000E+00  0.0000E+00  0.0000E+00
    -17.148  0.0000E+00  0.0000E+00  0.0000E+00
    -17.046  0.0000E+00  0.0000E+00  0.0000E+00
    -16.944  0.0000E+00  0.0000E+00  0.0000E+00
    -16.842  0.0000E+00  0.0000E+00  0.0000E+00
    -16.740  0.0000E+00  0.0000E+00  0.0000E+00
    -16.638  0.0000E+00  0.0000E+00  0.0000E+00
    -16.536  0.0000E+00  0.0000E+00  0.0000E+00
    -16.434  0.0000E+00  0.0000E+00  0.0000E+00
    -16.332  0.7827E-11  0.3895E-11  0.2161E-11
    -16.230  0.1576E-04  0.2760E-04  0.8889E-05
    -16.128  0.3778E-06  0.1998E-04  0.8619E-06
    -16.026  0.2722E-04  0.2099E-04  0.2114E-05
    -15.924  0.0000E+00  0.0000E+00  0.0000E+00
    -15.822  0.0000E+00  0.0000E+00  0.0000E+00
    -15.720  0.0000E+00  0.0000E+00  0.0000E+00
    -15.618  0.0000E+00  0.0000E+00  0.0000E+00
    -15.516  0.0000E+00  0.0000E+00  0.0000E+00
    -15.414  0.0000E+00  0.0000E+00  0.0000E+00
    -15.312  0.0000E+00  0.0000E+00  0.0000E+00
    -15.210  0.0000E+00  0.0000E+00  0.0000E+00
    -15.108  0.0000E+00  0.0000E+00  0.0000E+00
    -15.006  0.0000E+00  0.0000E+00  0.0000E+00
    -14.904  0.0000E+00  0.0000E+00  0.0000E+00
    -14.802  0.0000E+00  0.0000E+00  0.0000E+00
    -14.700  0.0000E+00  0.0000E+00  0.0000E+00
    -14.598  0.0000E+00  0.0000E+00  0.0000E+00
    -14.496  0.0000E+00  0.0000E+00  0.0000E+00
    -14.394  0.6476E-04  0.3850E-07  0.2607E-07
    -14.292  0.9331E-03  0.2929E-03  0.2043E-05
    -14.189  0.1670E-02  0.1647E-02  0.3350E-04
    -14.087  0.4754E-05  0.2469E-02  0.3964E-04
    -13.985  0.8132E-03  0.1952E-02  0.1287E-03
    -13.883  0.7712E-06  0.5661E-04  0.1134E-03
    -13.781  0.1235E-03  0.1463E-02  0.1914E-03
    -13.679  0.1556E-03  0.2124E-03  0.7576E-04
    -13.577  0.4387E-04  0.9844E-04  0.2784E-04
    -13.475  0.0000E+00  0.0000E+00  0.0000E+00
    -13.373  0.0000E+00  0.0000E+00  0.0000E+00