 vasp.5.4.4.18Apr17-6-g9f103f2a35 (build Jun 22 2020 09:27:21) complex           
 executed on tx2_gcc-7.3_libsci-1 date 2021.09.22  08:43:24
 running on   64 total cores
 distrk:  each k-point on   64 cores,    1 groups
 distr:  one band on NCORES_PER_BAND=   8 cores,    8 groups


--------------------------------------------------------------------------------------------------------


 INCAR:
 POTCAR:    PAW_PBE Cs_sv 08Apr2002               
 POTCAR:    PAW_PBE Pb_d 06Sep2000                
 POTCAR:    PAW_PBE Br 06Sep2000                  
 POTCAR:    PAW_PBE Cs_sv 08Apr2002               
   SHA256 =  c1463496f0f6037ed62c6012a8013a89ee9ad6ffb38599dcd6c079e7ed31779b Cs
   COPYR  = (c) Copyright 08Apr2002 Georg Kresse                                
   COPYR  = This file is part of the software VASP. Any use, copying, and all ot
   COPYR  = If you do not have a valid VASP license, you may not use, copy or di
   VRHFIN =Cs: 5s5p6s                                                           
   LEXCH  = PE                                                                  
   EATOM  =   555.6835 eV,   40.8416 Ry                                         
                                                                                
   TITEL  = PAW_PBE Cs_sv 08Apr2002                                             
   LULTRA =        F    use ultrasoft PP ?                                      
   IUNSCR =        1    unscreen: 0-lin 1-nonlin 2-no                           
   RPACOR =    2.200    partial core radius                                     
   POMASS =  132.900; ZVAL   =    9.000    mass and valenz                      
   RCORE  =    2.500    outmost cutoff radius                                   
   RWIGS  =    2.500; RWIGS  =    1.323    wigner-seitz radius (au A)           
   ENMAX  =  220.318; ENMIN  =  165.238 eV                                      
   RCLOC  =    2.207    cutoff for local pot                                    
   LCOR   =        T    correct aug charges                                     
   LPAW   =        T    paw PP                                                  
   EAUG   =  407.933                                                            
   DEXC   =    0.000                                                            
   RMAX   =    2.554    core radius for proj-oper                               
   RAUG   =    1.300    factor for augmentation sphere                          
   RDEP   =    2.590    radius for radial grids                                 
   RDEPT  =    2.117    core radius for aug-charge                              
                                                                                
   Atomic configuration                                                         
   13 entries                                                                   
     n  l   j            E        occ.                                          
     1  0  0.50    -35790.1377   2.0000                                         
     2  0  0.50     -5613.6201   2.0000                                         
     2  1  1.50     -5035.0101   6.0000                                         
     3  0  0.50     -1167.0767   2.0000                                         
     3  1  1.50      -980.9754   6.0000                                         
     3  2  2.50      -708.0703  10.0000                                         
     4  0  0.50      -220.2386   2.0000                                         
     4  1  1.50      -160.7596   6.0000                                         
     4  2  2.50       -74.2354  10.0000                                         
     5  0  0.50       -26.7287   2.0000                                         
     6  0  0.50        -2.0862   1.0000                                         
     5  1  1.50       -13.5159   6.0000                                         
     5  2  2.50        -0.4136   0.0000                                         
   Description                                                                  
     l       E           TYP  RCUT    TYP  RCUT                                 
     0    -26.7287425     23  1.900                                             
     0     -2.0862306     23  1.900                                             
     1    -13.5158719     23  2.500                                             
     1     -2.7211652     23  2.500                                             
     2     -0.4136171     23  2.500                                             
  local pseudopotential read in
  partial core-charges read in
  partial kinetic energy density read in
  atomic valenz-charges read in
  non local Contribution for L=           0  read in
    real space projection operators read in
  non local Contribution for L=           0  read in
    real space projection operators read in
  non local Contribution for L=           1  read in
    real space projection operators read in
  non local Contribution for L=           1  read in
    real space projection operators read in
  non local Contribution for L=           2  read in
    real space projection operators read in
    PAW grid and wavefunctions read in

   number of l-projection  operators is LMAX  =           5
   number of lm-projection operators is LMMAX =          13

 POTCAR:    PAW_PBE Pb_d 06Sep2000                
   SHA256 =  fb885b08f0fba73a15f6a6b0e39bd200c13ec96ef97cf3ecd8e63bade5137abd Pb
   COPYR  = (c) Copyright 06Sep2000 Georg Kresse                                
   COPYR  = This file is part of the software VASP. Any use, copying, and all ot
   COPYR  = If you do not have a valid VASP license, you may not use, copy or di
   VRHFIN =Pb:                                                                  
   LEXCH  = PE                                                                  
   EATOM  =  1661.6185 eV,  122.1255 Ry                                         
                                                                                
   TITEL  = PAW_PBE Pb_d 06Sep2000                                              
   LULTRA =        F    use ultrasoft PP ?                                      
   IUNSCR =        1    unscreen: 0-lin 1-nonlin 2-no                           
   RPACOR =    2.200    partial core radius                                     
   POMASS =  207.200; ZVAL   =   14.000    mass and valenz                      
   RCORE  =    2.500    outmost cutoff radius                                   
   RWIGS  =    3.260; RWIGS  =    1.725    wigner-seitz radius (au A)           
   ENMAX  =  237.835; ENMIN  =  178.376 eV                                      
   ICORE  =        3    local potential                                         
   LCOR   =        T    correct aug charges                                     
   LPAW   =        T    paw PP                                                  
   EAUG   =  391.914                                                            
   DEXC   =    0.000                                                            
   RMAX   =    2.565    core radius for proj-oper                               
   RAUG   =    1.300    factor for augmentation sphere                          
   RDEP   =    2.643    radius for radial grids                                 
   RDEPT  =    2.092    core radius for aug-charge                              
                                                                                
   Atomic configuration                                                         
   16 entries                                                                   
     n  l   j            E        occ.                                          
     1  0  0.50    -88091.8466   2.0000                                         
     2  0  0.50    -15753.4197   2.0000                                         
     2  1  1.50    -13508.1797   6.0000                                         
     3  0  0.50     -3781.7194   2.0000                                         
     3  1  1.50     -3138.2529   6.0000                                         
     3  2  2.50     -2483.2977  10.0000                                         
     4  0  0.50      -856.2895   2.0000                                         
     4  1  1.50      -645.4942   6.0000                                         
     4  2  2.50      -401.8768  10.0000                                         
     4  3  3.50      -132.9059  14.0000                                         
     5  0  0.50      -144.0950   2.0000                                         
     5  1  1.50       -85.7879   6.0000                                         
     5  2  2.50       -21.1769  10.0000                                         
     6  0  0.50       -12.0372   2.0000                                         
     6  1  1.50        -3.4971   2.0000                                         
     5  3  2.50        -2.7212   0.0000                                         
   Description                                                                  
     l       E           TYP  RCUT    TYP  RCUT                                 
     2    -21.1768523     23  2.500                                             
     2      1.3605826     23  2.500                                             
     0    -12.0371562     23  2.500                                             
     0     13.6058260     23  2.500                                             
     1     -3.4971339     23  2.500                                             
     1     13.6058260     23  2.500                                             
     3     -1.3605826      7  2.500                                             
  local pseudopotential read in
  partial core-charges read in
  partial kinetic energy density read in
  atomic valenz-charges read in
  non local Contribution for L=           2  read in
    real space projection operators read in
  non local Contribution for L=           2  read in
    real space projection operators read in
  non local Contribution for L=           0  read in
    real space projection operators read in
  non local Contribution for L=           0  read in
    real space projection operators read in
  non local Contribution for L=           1  read in
    real space projection operators read in
  non local Contribution for L=           1  read in
    real space projection operators read in
    PAW grid and wavefunctions read in

   number of l-projection  operators is LMAX  =           6
   number of lm-projection operators is LMMAX =          18

 POTCAR:    PAW_PBE Br 06Sep2000                  
   SHA256 =  96a73d2954943bbee26f4990d676cc6c3bf44b8dd2c75cd4b3b825d8403f0103 Br
   COPYR  = (c) Copyright 06Sep2000 Georg Kresse                                
   COPYR  = This file is part of the software VASP. Any use, copying, and all ot
   COPYR  = If you do not have a valid VASP license, you may not use, copy or di
   VRHFIN =Br: s2p5                                                             
   LEXCH  = PE                                                                  
   EATOM  =   368.4488 eV,   27.0802 Ry                                         
                                                                                
   TITEL  = PAW_PBE Br 06Sep2000                                                
   LULTRA =        F    use ultrasoft PP ?                                      
   IUNSCR =        1    unscreen: 0-lin 1-nonlin 2-no                           
   RPACOR =    1.900    partial core radius                                     
   POMASS =   79.904; ZVAL   =    7.000    mass and valenz                      
   RCORE  =    2.100    outmost cutoff radius                                   
   RWIGS  =    2.200; RWIGS  =    1.164    wigner-seitz radius (au A)           
   ENMAX  =  216.285; ENMIN  =  162.214 eV                                      
   ICORE  =        3    local potential                                         
   LCOR   =        T    correct aug charges                                     
   LPAW   =        T    paw PP                                                  
   EAUG   =  503.852                                                            
   DEXC   =    0.000                                                            
   RMAX   =    2.139    core radius for proj-oper                               
   RAUG   =    1.300    factor for augmentation sphere                          
   RDEP   =    2.186    radius for radial grids                                 
   RDEPT  =    1.890    core radius for aug-charge                              
                                                                                
   Atomic configuration                                                         
   10 entries                                                                   
     n  l   j            E        occ.                                          
     1  0  0.50    -13316.2796   2.0000                                         
     2  0  0.50     -1732.8239   2.0000                                         
     2  1  1.50     -1528.2193   6.0000                                         
     3  0  0.50      -238.0460   2.0000                                         
     3  1  1.50      -173.4609   6.0000                                         
     3  2  2.50       -66.7132  10.0000                                         
     4  0  0.50       -20.1334   2.0000                                         
     4  1  0.50        -7.8591   5.0000                                         
     4  2  2.50        -8.1635   0.0000                                         
     4  3  2.50        -8.1635   0.0000                                         
   Description                                                                  
     l       E           TYP  RCUT    TYP  RCUT                                 
     0    -20.1333652     23  2.100                                             
     0    -21.4939478     23  2.100                                             
     1     -7.8591052     23  2.100                                             
     1     -3.1608434     23  2.100                                             
     2     -8.1634956     23  2.100                                             
     3     -1.3605826      7  2.100                                             
  local pseudopotential read in
  partial core-charges read in
  partial kinetic energy density read in
  atomic valenz-charges read in
  non local Contribution for L=           0  read in
    real space projection operators read in
  non local Contribution for L=           0  read in
    real space projection operators read in
  non local Contribution for L=           1  read in
    real space projection operators read in
  non local Contribution for L=           1  read in
    real space projection operators read in
  non local Contribution for L=           2  read in
    real space projection operators read in
    PAW grid and wavefunctions read in

   number of l-projection  operators is LMAX  =           5
   number of lm-projection operators is LMMAX =          13

 Optimization of the real space projectors (new method)

 maximal supplied QI-value         = 15.12
 optimisation between [QCUT,QGAM] = [  8.77, 17.69] = [ 21.53, 87.61] Ry 
 Optimized for a Real-space Cutoff    1.85 Angstroem

   l    n(q)    QCUT    max X(q) W(low)/X(q) W(high)/X(q)  e(spline) 
   0     10     8.768    25.322    0.81E-04    0.51E-04    0.48E-06
   0     10     8.768    99.187    0.78E-04    0.50E-04    0.47E-06
   1      9     8.768    11.761    0.21E-03    0.20E-03    0.37E-06
   1      9     8.768     8.275    0.24E-03    0.22E-03    0.41E-06
   2      9     8.768     3.829    0.23E-04    0.15E-03    0.18E-06
 Optimization of the real space projectors (new method)

 maximal supplied QI-value         = 15.12
 optimisation between [QCUT,QGAM] = [  8.77, 17.69] = [ 21.53, 87.61] Ry 
 Optimized for a Real-space Cutoff    1.59 Angstroem

   l    n(q)    QCUT    max X(q) W(low)/X(q) W(high)/X(q)  e(spline) 
   2      7     8.768     3.846    0.48E-04    0.11E-03    0.11E-06
   2      7     8.768     8.593    0.20E-03    0.22E-04    0.24E-06
   0      8     8.768    20.082    0.68E-04    0.88E-04    0.41E-07
   0      8     8.768     8.597    0.89E-04    0.13E-03    0.59E-07
   1      8     8.768    33.223    0.15E-03    0.53E-04    0.87E-07
   1      8     8.768    15.899    0.14E-03    0.44E-04    0.78E-07
 Optimization of the real space projectors (new method)

 maximal supplied QI-value         = 17.95
 optimisation between [QCUT,QGAM] = [  8.80, 17.59] = [ 21.67, 86.68] Ry 
 Optimized for a Real-space Cutoff    1.59 Angstroem

   l    n(q)    QCUT    max X(q) W(low)/X(q) W(high)/X(q)  e(spline) 
   0      8     8.797   175.082    0.82E-04    0.14E-03    0.89E-07
   0      8     8.797   174.004    0.79E-04    0.14E-03    0.86E-07
   1      8     8.797    54.315    0.16E-03    0.14E-04    0.30E-06
   1      8     8.797    42.441    0.16E-03    0.14E-04    0.30E-06
   2      7     8.797     3.596    0.92E-04    0.15E-03    0.85E-07
  PAW_PBE Cs_sv 08Apr2002               :
 energy of atom  1       EATOM= -555.6835
 kinetic energy error for atom=    0.0069 (will be added to EATOM!!)
  PAW_PBE Pb_d 06Sep2000                :
 energy of atom  2       EATOM=-1661.6185
 kinetic energy error for atom=    0.0498 (will be added to EATOM!!)
  PAW_PBE Br 06Sep2000                  :
 energy of atom  3       EATOM= -368.4488
 kinetic energy error for atom=    0.0072 (will be added to EATOM!!)


 POSCAR: Cs8 Pb8 Br24                            
  positions in direct lattice
  No initial velocities read in

 METAGGA = SCAN     LMAXTAU =  6    LMIXTAU =  F

 exchange correlation table for  LEXCH =        8
   RHO(1)=    0.500       N(1)  =     2000
   RHO(2)=  100.500       N(2)  =     4000

 VTST: version 3.2, (02/03/18)

 CHAIN: initializing optimizer
 
 OPT: Using VASP Conjugate-Gradient optimizer
 CHAIN: Read ICHAIN            0

 POSCAR: Cs8 Pb8 Br24                            
  positions in direct lattice
  No initial velocities read in



--------------------------------------------------------------------------------------------------------


 ion  position               nearest neighbor table
   1  0.250  0.250  0.250-
   2  0.250  0.250  0.750-
   3  0.250  0.750  0.250-
   4  0.250  0.750  0.750-
   5  0.750  0.250  0.250-
   6  0.750  0.250  0.750-
   7  0.750  0.750  0.250-
   8  0.750  0.750  0.750-
   9  0.000  0.000  0.000-  17 2.94  19 2.94  33 2.94  37 2.94  25 2.94  26 2.94
  10  0.000  0.000  0.500-  18 2.94  20 2.94  34 2.94  38 2.94  25 2.94  26 2.94
  11  0.000  0.500  0.000-  17 2.94  19 2.94  35 2.94  39 2.94  27 2.94  28 2.94
  12  0.000  0.500  0.500-  18 2.94  20 2.94  36 2.94  40 2.94  27 2.94  28 2.94
  13  0.500  0.000  0.000-  21 2.94  23 2.94  33 2.94  37 2.94  29 2.94  30 2.94
  14  0.500  0.000  0.500-  22 2.94  24 2.94  34 2.94  38 2.94  29 2.94  30 2.94
  15  0.500  0.500  0.000-  21 2.94  23 2.94  35 2.94  39 2.94  31 2.94  32 2.94
  16  0.500  0.500  0.500-  22 2.94  24 2.94  36 2.94  40 2.94  31 2.94  32 2.94
  17  0.989  0.250  0.013-   9 2.94  11 2.94
  18  0.989  0.250  0.487-  10 2.94  12 2.94
  19  0.011  0.750  0.987-   9 2.94  11 2.94
  20  0.011  0.750  0.513-  10 2.94  12 2.94
  21  0.511  0.250  0.987-  13 2.94  15 2.94
  22  0.511  0.250  0.513-  14 2.94  16 2.94
  23  0.489  0.750  0.013-  13 2.94  15 2.94
  24  0.489  0.750  0.487-  14 2.94  16 2.94
  25  0.013  0.987  0.250-   9 2.94  10 2.94
  26  0.987  0.013  0.750-   9 2.94  10 2.94
  27  0.987  0.513  0.250-  11 2.94  12 2.94
  28  0.013  0.487  0.750-  11 2.94  12 2.94
  29  0.487  0.013  0.250-  13 2.94  14 2.94
  30  0.513  0.987  0.750-  13 2.94  14 2.94
  31  0.513  0.487  0.250-  15 2.94  16 2.94
  32  0.487  0.513  0.750-  15 2.94  16 2.94
  33  0.250  0.011  0.987-   9 2.94  13 2.94
  34  0.250  0.011  0.513-  10 2.94  14 2.94
  35  0.250  0.489  0.013-  11 2.94  15 2.94
  36  0.250  0.489  0.487-  12 2.94  16 2.94
  37  0.750  0.989  0.013-   9 2.94  13 2.94
  38  0.750  0.989  0.487-  10 2.94  14 2.94
  39  0.750  0.511  0.987-  11 2.94  15 2.94
  40  0.750  0.511  0.513-  12 2.94  16 2.94

  LATTYP: Found a simple cubic cell.
 ALAT       =    11.7353520000
  
  Lattice vectors:
  
 A1 = (  11.7353520000,   0.0000000000,   0.0000000000)
 A2 = (   0.0000000000,  11.7353520000,   0.0000000000)
 A3 = (   0.0000000000,   0.0000000000,  11.7353520000)


Analysis of symmetry for initial positions (statically):
=====================================================================
 Subroutine PRICEL returns following result:
 
  LATTYP: Found a simple tetragonal cell.
 ALAT       =     8.2981469788
 C/A-ratio  =     1.4142135624
  
  Lattice vectors:
  
 A1 = (   5.8676760000,  -5.8676760000,   0.0000000000)
 A2 = (  -5.8676760000,  -5.8676760000,   0.0000000000)
 A3 = (   0.0000000000,   0.0000000000, -11.7353520000)
 
   2 primitive cells build up your supercell.
 

 Routine SETGRP: Setting up the symmetry group for a 
 simple cubic supercell.


 Subroutine GETGRP returns: Found  8 space group operations
 (whereof  2 operations were pure point group operations)
 out of a pool of 48 trial point group operations.


The static configuration has the point symmetry S_2 .
 The point group associated with its full space group is D_2h.


Analysis of symmetry for dynamics (positions and initial velocities):
=====================================================================
 Subroutine PRICEL returns following result:
 
  LATTYP: Found a simple tetragonal cell.
 ALAT       =     8.2981469788
 C/A-ratio  =     1.4142135624
  
  Lattice vectors:
  
 A1 = (   5.8676760000,  -5.8676760000,   0.0000000000)
 A2 = (  -5.8676760000,  -5.8676760000,   0.0000000000)
 A3 = (   0.0000000000,   0.0000000000, -11.7353520000)
 
   2 primitive cells build up your supercell.
 

 Routine SETGRP: Setting up the symmetry group for a 
 simple cubic supercell.


 Subroutine GETGRP returns: Found  8 space group operations
 (whereof  2 operations were pure point group operations)
 out of a pool of 48 trial point group operations.


The dynamic configuration has the point symmetry S_2 .
 The point group associated with its full space group is D_2h.


 Subroutine INISYM returns: Found  8 space group operations
 (whereof  2 operations are pure point group operations),
 and found     2 'primitive' translations



 KPOINTS: 1x1x1                                   

Automatic generation of k-mesh.
Space group operators:
 irot       det(A)        alpha          n_x          n_y          n_z        tau_x        tau_y        tau_z
    1     1.000000     0.000000     1.000000     0.000000     0.000000    -0.000000    -0.000000    -0.000000
    2    -1.000000     0.000000     1.000000     0.000000     0.000000    -0.000000    -0.000000    -0.000000
    3     1.000000   180.000000     0.000000     0.000000     1.000000    -0.000000    -0.000000    -0.500000
    4    -1.000000   180.000000     0.000000     0.000000     1.000000    -0.000000    -0.000000    -0.500000
    5     1.000000   180.000000     0.707107     0.707107     0.000000     0.000000    -0.500000    -0.500000
    6    -1.000000   180.000000     0.707107     0.707107     0.000000     0.000000    -0.500000    -0.500000
    7     1.000000   180.000000     0.707107    -0.707107     0.000000     0.000000    -0.500000    -0.000000
    8    -1.000000   180.000000     0.707107    -0.707107     0.000000     0.000000    -0.500000    -0.000000
 
 Subroutine IBZKPT returns following result:
 ===========================================
 
 Found      6 irreducible k-points:
 
 Following reciprocal coordinates:
            Coordinates               Weight
  0.000000  0.000000  0.000000      1.000000
  0.500000  0.000000  0.000000      2.000000
  0.500000  0.500000  0.000000      1.000000
  0.000000  0.000000  0.500000      1.000000
  0.500000  0.000000  0.500000      2.000000
  0.500000  0.500000  0.500000      1.000000
 
 Following cartesian coordinates:
            Coordinates               Weight
  0.000000  0.000000  0.000000      1.000000
  0.042606  0.000000  0.000000      2.000000
  0.042606  0.042606  0.000000      1.000000
  0.000000  0.000000  0.042606      1.000000
  0.042606  0.000000  0.042606      2.000000
  0.042606  0.042606  0.042606      1.000000
 


--------------------------------------------------------------------------------------------------------




 Dimension of arrays:
   k-points           NKPTS =      6   k-points in BZ     NKDIM =      6   number of bands    NBANDS=    216
   number of dos      NEDOS =    301   number of ions     NIONS =     40
   non local maximal  LDIM  =      6   non local SUM 2l+1 LMDIM =     18
   total plane-waves  NPLWV = 343000
   max r-space proj   IRMAX =   5660   max aug-charges    IRDMAX=  90331
   dimension x,y,z NGX =    70 NGY =   70 NGZ =   70
   dimension x,y,z NGXF=   140 NGYF=  140 NGZF=  140
   support grid    NGXF=   280 NGYF=  280 NGZF=  280
   ions per type =               8   8  24
   NGX,Y,Z   is equivalent  to a cutoff of   9.92,  9.92,  9.92 a.u.
   NGXF,Y,Z  is equivalent  to a cutoff of  19.83, 19.83, 19.83 a.u.

 SYSTEM =  CsPbBr3 cubic bulk                      
 POSCAR =  Cs8 Pb8 Br24                            

 Startparameter for this run:
   NWRITE =      2    write-flag & timer
   PREC   = accura    normal or accurate (medium, high low for compatibility)
   ISTART =      0    job   : 0-new  1-cont  2-samecut
   ICHARG =      2    charge: 1-file 2-atom 10-const
   ISPIN  =      1    spin polarized calculation?
   LNONCOLLINEAR =      F non collinear calculations
   LSORBIT =      F    spin-orbit coupling
   INIWAV =      1    electr: 0-lowe 1-rand  2-diag
   LASPH  =      T    aspherical Exc in radial PAW
   METAGGA=      F    non-selfconsistent MetaGGA calc.

 Electronic Relaxation 1
   ENCUT  =  300.0 eV  22.05 Ry    4.70 a.u.  16.57 16.57 16.57*2*pi/ulx,y,z
   ENINI  =  300.0     initial cutoff
   ENAUG  =  503.9 eV  augmentation charge cutoff
   NELM   =    200;   NELMIN=  2; NELMDL= -5     # of ELM steps 
   EDIFF  = 0.1E-05   stopping-criterion for ELM
   LREAL  =      T    real-space projection
   NLSPLINE    = F    spline interpolate recip. space projectors
   LCOMPAT=      F    compatible to vasp.4.4
   GGA_COMPAT  = T    GGA compatible to vasp.4.4-vasp.4.6
   LMAXPAW     = -100 max onsite density
   LMAXMIX     =    2 max onsite mixed and CHGCAR
   VOSKOWN=      0    Vosko Wilk Nusair interpolation
   ROPT   =   -0.00025  -0.00025  -0.00025
 Ionic relaxation
   EDIFFG = -.1E-01   stopping-criterion for IOM
   NSW    =      0    number of steps for IOM
   NBLOCK =      1;   KBLOCK =      1    inner block; outer block 
   IBRION =     -1    ionic relax: 0-MD 1-quasi-New 2-CG
   NFREE  =      1    steps in history (QN), initial steepest desc. (CG)
   ISIF   =      3    stress and relaxation
   IWAVPR =     10    prediction:  0-non 1-charg 2-wave 3-comb
   ISYM   =      2    0-nonsym 1-usesym 2-fastsym
   LCORR  =      T    Harris-Foulkes like correction to forces

   POTIM  = 0.5000    time-step for ionic-motion
   TEIN   =    0.0    initial temperature
   TEBEG  =    0.0;   TEEND  =   0.0 temperature during run
   SMASS  =  -3.00    Nose mass-parameter (am)
   estimated Nose-frequenzy (Omega)   =  0.10E-29 period in steps =****** mass=  -0.315E-26a.u.
   SCALEE = 1.0000    scale energy and forces
   NPACO  =    256;   APACO  = 16.0  distance and # of slots for P.C.
   PSTRESS=    0.0 pullay stress

  Mass of Ions in am
   POMASS = 132.90207.20 79.90
  Ionic Valenz
   ZVAL   =   9.00 14.00  7.00
  Atomic Wigner-Seitz radii
   RWIGS  =  -1.00 -1.00 -1.00
  virtual crystal weights 
   VCA    =   1.00  1.00  1.00
   NELECT =     352.0000    total number of electrons
   NUPDOWN=      -1.0000    fix difference up-down

 DOS related values:
   EMIN   =  10.00;   EMAX   =-10.00  energy-range for DOS
   EFERMI =   0.00
   ISMEAR =     0;   SIGMA  =   0.01  broadening in eV -4-tet -1-fermi 0-gaus

 Electronic relaxation 2 (details)
   IALGO  =     38    algorithm
   LDIAG  =      T    sub-space diagonalisation (order eigenvalues)
   LSUBROT=      F    optimize rotation matrix (better conditioning)
   TURBO    =      0    0=normal 1=particle mesh
   IRESTART =      0    0=no restart 2=restart with 2 vectors
   NREBOOT  =      0    no. of reboots
   NMIN     =      0    reboot dimension
   EREF     =   0.00    reference energy to select bands
   IMIX   =      4    mixing-type and parameters
     AMIX     =   0.40;   BMIX     =  1.00
     AMIX_MAG =   1.60;   BMIX_MAG =  1.00
     AMIN     =   0.10
     WC   =   100.;   INIMIX=   1;  MIXPRE=   1;  MAXMIX= -45

 Intra band minimization:
   WEIMIN = 0.0000     energy-eigenvalue tresh-hold
   EBREAK =  0.12E-08  absolut break condition
   DEPER  =   0.30     relativ break condition  

   TIME   =   0.40     timestep for ELM

  volume/ion in A,a.u.               =      40.40       272.66
  Fermi-wavevector in a.u.,A,eV,Ry     =   0.984977  1.861337 13.200107  0.970180
  Thomas-Fermi vector in A             =   2.116250

 Write flags
   LWAVE        =      F    write WAVECAR
   LDOWNSAMPLE  =      F    k-point downsampling of WAVECAR
   LCHARG       =      T    write CHGCAR
   LVTOT        =      F    write LOCPOT, total local potential
   LVHAR        =      T    write LOCPOT, Hartree potential only
   LELF         =      F    write electronic localiz. function (ELF)
   LORBIT       =     10    0 simple, 1 ext, 2 COOP (PROOUT), +10 PAW based schemes


 Dipole corrections
   LMONO  =      F    monopole corrections only (constant potential shift)
   LDIPOL =      F    correct potential (dipole corrections)
   IDIPOL =      0    1-x, 2-y, 3-z, 4-all directions 
   EPSILON=  1.0000000 bulk dielectric constant

 Exchange correlation treatment:
   GGA     =    --    GGA type
   LEXCH   =     8    internal setting for exchange type
   VOSKOWN=      0    Vosko Wilk Nusair interpolation
   LHFCALC =     F    Hartree Fock is set to
   LHFONE  =     F    Hartree Fock one center treatment
   AEXX    =    0.0000 exact exchange contribution

 Linear response parameters
   LEPSILON=     F    determine dielectric tensor
   LRPA    =     F    only Hartree local field effects (RPA)
   LNABLA  =     F    use nabla operator in PAW spheres
   LVEL    =     F    velocity operator in full k-point grid
   LINTERFAST=   F  fast interpolation
   KINTER  =     0    interpolate to denser k-point grid
   CSHIFT  =0.1000    complex shift for real part using Kramers Kronig
   OMEGAMAX=  -1.0    maximum frequency
   DEG_THRESHOLD= 0.2000000E-02 threshold for treating states as degnerate
   RTIME   =   -0.100 relaxation time in fs
  (WPLASMAI=    0.000 imaginary part of plasma frequency in eV, 0.658/RTIME)
   DFIELD  = 0.0000000 0.0000000 0.0000000 field for delta impulse in time

 Orbital magnetization related:
   ORBITALMAG=     F  switch on orbital magnetization
   LCHIMAG   =     F  perturbation theory with respect to B field
   DQ        =  0.001000  dq finite difference perturbation B field
   LLRAUG    =     F  two centre corrections for induced B field



--------------------------------------------------------------------------------------------------------


 Static calculation
 charge density and potential will be updated during run
 non-spin polarized calculation
 Variant of blocked Davidson
 Davidson routine will perform the subspace rotation
 perform sub-space diagonalisation
    after iterative eigenvector-optimisation
 modified Broyden-mixing scheme, WC =      100.0
 initial mixing is a Kerker type mixing with AMIX =  0.4000 and BMIX =      1.0000
 Hartree-type preconditioning will be used
 using additional bands           40
 real space projection scheme for non local part
 use partial core corrections
 calculate Harris-corrections to forces   (improved forces if not selfconsistent)
 use gradient corrections 
 use of overlap-Matrix (Vanderbilt PP)
 Gauss-broadening in eV      SIGMA  =   0.01


--------------------------------------------------------------------------------------------------------


  energy-cutoff  :      300.00
  volume of cell :     1616.17
      direct lattice vectors                 reciprocal lattice vectors
    11.735352000  0.000000000  0.000000000     0.085212612  0.000000000  0.000000000
     0.000000000 11.735352000  0.000000000     0.000000000  0.085212612  0.000000000
     0.000000000  0.000000000 11.735352000     0.000000000  0.000000000  0.085212612

  length of vectors
    11.735352000 11.735352000 11.735352000     0.085212612  0.085212612  0.085212612



 k-points in units of 2pi/SCALE and weight: 1x1x1                                   
   0.00000000  0.00000000  0.00000000       0.125
   0.04260631  0.00000000  0.00000000       0.250
   0.04260631  0.04260631  0.00000000       0.125
   0.00000000  0.00000000  0.04260631       0.125
   0.04260631  0.00000000  0.04260631       0.250
   0.04260631  0.04260631  0.04260631       0.125

 k-points in reciprocal lattice and weights: 1x1x1                                   
   0.00000000  0.00000000  0.00000000       0.125
   0.50000000  0.00000000  0.00000000       0.250
   0.50000000  0.50000000  0.00000000       0.125
   0.00000000  0.00000000  0.50000000       0.125
   0.50000000  0.00000000  0.50000000       0.250
   0.50000000  0.50000000  0.50000000       0.125

 position of ions in fractional coordinates (direct lattice) 
   0.25000000  0.25000000  0.25000000
   0.25000000  0.25000000  0.75000000
   0.25000000  0.75000000  0.25000000
   0.25000000  0.75000000  0.75000000
   0.75000000  0.25000000  0.25000000
   0.75000000  0.25000000  0.75000000
   0.75000000  0.75000000  0.25000000
   0.75000000  0.75000000  0.75000000
   0.00000000  0.00000000  0.00000000
   0.00000000  0.00000000  0.50000000
   0.00000000  0.50000000  0.00000000
   0.00000000  0.50000000  0.50000000
   0.50000000  0.00000000  0.00000000
   0.50000000  0.00000000  0.50000000
   0.50000000  0.50000000  0.00000000
   0.50000000  0.50000000  0.50000000
   0.98875000  0.25000000  0.01250000
   0.98875000  0.25000000  0.48750000
   0.01125000  0.75000000  0.98750000
   0.01125000  0.75000000  0.51250000
   0.51125000  0.25000000  0.98750000
   0.51125000  0.25000000  0.51250000
   0.48875000  0.75000000  0.01250000
   0.48875000  0.75000000  0.48750000
   0.01250000  0.98750000  0.25000000
   0.98750000  0.01250000  0.75000000
   0.98750000  0.51250000  0.25000000
   0.01250000  0.48750000  0.75000000
   0.48750000  0.01250000  0.25000000
   0.51250000  0.98750000  0.75000000
   0.51250000  0.48750000  0.25000000
   0.48750000  0.51250000  0.75000000
   0.25000000  0.01125000  0.98750000
   0.25000000  0.01125000  0.51250000
   0.25000000  0.48875000  0.01250000
   0.25000000  0.48875000  0.48750000
   0.75000000  0.98875000  0.01250000
   0.75000000  0.98875000  0.48750000
   0.75000000  0.51125000  0.98750000
   0.75000000  0.51125000  0.51250000

 position of ions in cartesian coordinates  (Angst):
   2.93383800  2.93383800  2.93383800
   2.93383800  2.93383800  8.80151400
   2.93383800  8.80151400  2.93383800
   2.93383800  8.80151400  8.80151400
   8.80151400  2.93383800  2.93383800
   8.80151400  2.93383800  8.80151400
   8.80151400  8.80151400  2.93383800
   8.80151400  8.80151400  8.80151400
   0.00000000  0.00000000  0.00000000
   0.00000000  0.00000000  5.86767600
   0.00000000  5.86767600  0.00000000
   0.00000000  5.86767600  5.86767600
   5.86767600  0.00000000  0.00000000
   5.86767600  0.00000000  5.86767600
   5.86767600  5.86767600  0.00000000
   5.86767600  5.86767600  5.86767600
  11.60332929  2.93383800  0.14669190
  11.60332929  2.93383800  5.72098410
   0.13202271  8.80151400 11.58866010
   0.13202271  8.80151400  6.01436790
   5.99969871  2.93383800 11.58866010
   5.99969871  2.93383800  6.01436790
   5.73565329  8.80151400  0.14669190
   5.73565329  8.80151400  5.72098410
   0.14669190 11.58866010  2.93383800
  11.58866010  0.14669190  8.80151400
  11.58866010  6.01436790  2.93383800
   0.14669190  5.72098410  8.80151400
   5.72098410  0.14669190  2.93383800
   6.01436790 11.58866010  8.80151400
   6.01436790  5.72098410  2.93383800
   5.72098410  6.01436790  8.80151400
   2.93383800  0.13202271 11.58866010
   2.93383800  0.13202271  6.01436790
   2.93383800  5.73565329  0.14669190
   2.93383800  5.73565329  5.72098410
   8.80151400 11.60332929  0.14669190
   8.80151400 11.60332929  5.72098410
   8.80151400  5.99969871 11.58866010
   8.80151400  5.99969871  6.01436790



--------------------------------------------------------------------------------------------------------


 k-point  1 :   0.0000 0.0000 0.0000  plane waves:   19093
 k-point  2 :   0.5000 0.0000 0.0000  plane waves:   19066
 k-point  3 :   0.5000 0.5000 0.0000  plane waves:   19072
 k-point  4 :   0.0000 0.0000 0.5000  plane waves:   19066
 k-point  5 :   0.5000 0.0000 0.5000  plane waves:   19072
 k-point  6 :   0.5000 0.5000 0.5000  plane waves:   19064

 maximum and minimum number of plane-waves per node :      2417     2354

 maximum number of plane-waves:     19093
 maximum index in each direction: 
   IXMAX=   16   IYMAX=   16   IZMAX=   16
   IXMIN=  -17   IYMIN=  -17   IZMIN=  -17


 real space projection operators:
  total allocation   :      16846.88 KBytes
  max/ min on nodes  :       2219.34       1840.91


 parallel 3D FFT for wavefunctions:
    minimum data exchange during FFTs selected (reduces bandwidth)
 parallel 3D FFT for charge:
    minimum data exchange during FFTs selected (reduces bandwidth)


 total amount of memory used by VASP MPI-rank0    58985. kBytes
=======================================================================

   base      :      30000. kBytes
   nonlr-proj:       6613. kBytes
   fftplans  :       8423. kBytes
   grid      :       7465. kBytes
   one-center:         77. kBytes
   wavefun   :       6407. kBytes

     INWAV:  cpu time    0.0000: real time    0.0000
 Broyden mixing: mesh for mixing (old mesh)
   NGX = 33   NGY = 33   NGZ = 33
  (NGX  =140   NGY  =140   NGZ  =140)
  gives a total of  35937 points

 initial charge density was supplied:
 charge density of overlapping atoms calculated
 number of electron     352.0000000 magnetization 
 keeping initial charge density in first step


--------------------------------------------------------------------------------------------------------


 Maximum index for non-local projection operator          712
 Maximum index for augmentation-charges         2962 (set IRDMAX)


--------------------------------------------------------------------------------------------------------


 First call to EWALD:  gamma=   0.151
 Maximum number of real-space cells 3x 3x 3
 Maximum number of reciprocal cells 3x 3x 3

    FEWALD:  cpu time    0.0039: real time    0.0039


--------------------------------------- Iteration      1(   1)  ---------------------------------------


    POTLOK:  cpu time    0.2561: real time    0.2698
    SETDIJ:  cpu time    1.1991: real time    1.1991
     EDDAV:  cpu time   12.7621: real time   12.7659
       DOS:  cpu time    0.0007: real time    0.0007
    --------------------------------------------
      LOOP:  cpu time   14.2180: real time   14.2355

 eigenvalue-minimisations  :  2688
 total energy-change (2. order) : 0.1341776E+04  (-0.1129567E+05)
 number of electron     352.0000000 magnetization 
 augmentation part      352.0000000 magnetization 

 Free energy of the ion-electron system (eV)
  ---------------------------------------------------
  alpha Z        PSCENC =       892.99476195
  Ewald energy   TEWEN  =    -18217.56302951
  -Hartree energ DENC   =     -7531.39787217
  -exchange      EXHF   =         0.00000000
  -V(xc)+E(xc)   XCENC  =       924.99681785
  PAW double counting   =     21633.96174531   -22707.92185401
  entropy T*S    EENTRO =        -0.00153079
  eigenvalues    EBANDS =      -233.85334353
  atomic energy  EATOM  =     26580.56019858
  Solvation  Ediel_sol  =         0.00000000
  ---------------------------------------------------
  free energy    TOTEN  =      1341.77589367 eV

  energy without entropy =     1341.77742447  energy(sigma->0) =     1341.77665907


--------------------------------------------------------------------------------------------------------




--------------------------------------- Iteration      1(   2)  ---------------------------------------


     EDDAV:  cpu time   14.0334: real time   14.0816
       DOS:  cpu time    0.0003: real time    0.0003
    --------------------------------------------
      LOOP:  cpu time   14.0337: real time   14.0820

 eigenvalue-minimisations  :  3120
 total energy-change (2. order) :-0.2471333E+04  (-0.2382834E+04)
 number of electron     352.0000000 magnetization 
 augmentation part      352.0000000 magnetization 

 Free energy of the ion-electron system (eV)
  ---------------------------------------------------
  alpha Z        PSCENC =       892.99476195
  Ewald energy   TEWEN  =    -18217.56302951
  -Hartree energ DENC   =     -7531.39787217
  -exchange      EXHF   =         0.00000000
  -V(xc)+E(xc)   XCENC  =       924.99681785
  PAW double counting   =     21633.96174531   -22707.92185401
  entropy T*S    EENTRO =        -0.00000000
  eigenvalues    EBANDS =     -2705.18830446
  atomic energy  EATOM  =     26580.56019858
  Solvation  Ediel_sol  =         0.00000000
  ---------------------------------------------------
  free energy    TOTEN  =     -1129.55753646 eV

  energy without entropy =    -1129.55753646  energy(sigma->0) =    -1129.55753646


--------------------------------------------------------------------------------------------------------




--------------------------------------- Iteration      1(   3)  ---------------------------------------


     EDDAV:  cpu time   15.0813: real time   15.1082
       DOS:  cpu time    0.0003: real time    0.0003
    --------------------------------------------
      LOOP:  cpu time   15.0817: real time   15.1085

 eigenvalue-minimisations  :  3496
 total energy-change (2. order) :-0.3653967E+03  (-0.3631108E+03)
 number of electron     352.0000000 magnetization 
 augmentation part      352.0000000 magnetization 

 Free energy of the ion-electron system (eV)
  ---------------------------------------------------
  alpha Z        PSCENC =       892.99476195
  Ewald energy   TEWEN  =    -18217.56302951
  -Hartree energ DENC   =     -7531.39787217
  -exchange      EXHF   =         0.00000000
  -V(xc)+E(xc)   XCENC  =       924.99681785
  PAW double counting   =     21633.96174531   -22707.92185401
  entropy T*S    EENTRO =        -0.00000000
  eigenvalues    EBANDS =     -3070.58500219
  atomic energy  EATOM  =     26580.56019858
  Solvation  Ediel_sol  =         0.00000000
  ---------------------------------------------------
  free energy    TOTEN  =     -1494.95423419 eV

  energy without entropy =    -1494.95423419  energy(sigma->0) =    -1494.95423419


--------------------------------------------------------------------------------------------------------




--------------------------------------- Iteration      1(   4)  ---------------------------------------


     EDDAV:  cpu time   13.9601: real time   13.9802
       DOS:  cpu time    0.0003: real time    0.0003
    --------------------------------------------
      LOOP:  cpu time   13.9604: real time   13.9806

 eigenvalue-minimisations  :  3096
 total energy-change (2. order) :-0.1222944E+02  (-0.1218231E+02)
 number of electron     352.0000000 magnetization 
 augmentation part      352.0000000 magnetization 

 Free energy of the ion-electron system (eV)
  ---------------------------------------------------
  alpha Z        PSCENC =       892.99476195
  Ewald energy   TEWEN  =    -18217.56302951
  -Hartree energ DENC   =     -7531.39787217
  -exchange      EXHF   =         0.00000000
  -V(xc)+E(xc)   XCENC  =       924.99681785
  PAW double counting   =     21633.96174531   -22707.92185401
  entropy T*S    EENTRO =        -0.00000000
  eigenvalues    EBANDS =     -3082.81444458
  atomic energy  EATOM  =     26580.56019858
  Solvation  Ediel_sol  =         0.00000000
  ---------------------------------------------------
  free energy    TOTEN  =     -1507.18367658 eV

  energy without entropy =    -1507.18367658  energy(sigma->0) =    -1507.18367658


--------------------------------------------------------------------------------------------------------




--------------------------------------- Iteration      1(   5)  ---------------------------------------


     EDDAV:  cpu time   14.9769: real time   14.9980
       DOS:  cpu time    0.0004: real time    0.0004
    CHARGE:  cpu time    2.7689: real time    2.7691
    MIXING:  cpu time    0.0014: real time    0.0014
    --------------------------------------------
      LOOP:  cpu time   17.7476: real time   17.7689

 eigenvalue-minimisations  :  3456
 total energy-change (2. order) :-0.5646335E+00  (-0.5642881E+00)
 number of electron     351.9999997 magnetization 
 augmentation part       -6.5350872 magnetization 

 Broyden mixing:
  rms(total) = 0.10615E+01    rms(broyden)= 0.10612E+01
  rms(prec ) = 0.13958E+01
  weight for this iteration     100.00

 Free energy of the ion-electron system (eV)
  ---------------------------------------------------
  alpha Z        PSCENC =       892.99476195
  Ewald energy   TEWEN  =    -18217.56302951
  -Hartree energ DENC   =     -7531.39787217
  -exchange      EXHF   =         0.00000000
  -V(xc)+E(xc)   XCENC  =       924.99681785
  PAW double counting   =     21633.96174531   -22707.92185401
  entropy T*S    EENTRO =        -0.00000000
  eigenvalues    EBANDS =     -3083.37907804
  atomic energy  EATOM  =     26580.56019858
  Solvation  Ediel_sol  =         0.00000000
  ---------------------------------------------------
  free energy    TOTEN  =     -1507.74831004 eV

  energy without entropy =    -1507.74831004  energy(sigma->0) =    -1507.74831004


--------------------------------------------------------------------------------------------------------




--------------------------------------- Iteration      1(   6)  ---------------------------------------


    POTLOK:  cpu time    0.2642: real time    0.3015
    SETDIJ:  cpu time    1.1963: real time    1.1964
     EDDAV:  cpu time   14.5944: real time   14.5953
       DOS:  cpu time    0.0004: real time    0.0004
    CHARGE:  cpu time    2.7922: real time    2.7923
    MIXING:  cpu time    0.0016: real time    0.0016
    --------------------------------------------
      LOOP:  cpu time   18.8492: real time   18.8874

 eigenvalue-minimisations  :  3336
 total energy-change (2. order) : 0.7846577E+02  (-0.2253986E+01)
 number of electron     351.9999997 magnetization 
 augmentation part       -5.1247317 magnetization 

 Broyden mixing:
  rms(total) = 0.75082E+00    rms(broyden)= 0.75073E+00
  rms(prec ) = 0.90607E+00
  weight for this iteration     100.00

 eigenvalues of (default mixing * dielectric matrix)
  average eigenvalue GAMMA=   1.2752
  1.2752

 Free energy of the ion-electron system (eV)
  ---------------------------------------------------
  alpha Z        PSCENC =       892.99476195
  Ewald energy   TEWEN  =    -18217.56302951
  -Hartree energ DENC   =     -7517.60132432
  -exchange      EXHF   =         0.00000000
  -V(xc)+E(xc)   XCENC  =       955.71255898
  PAW double counting   =     22030.05974054   -23103.66645121
  entropy T*S    EENTRO =        -0.00000000
  eigenvalues    EBANDS =     -3049.77899293
  atomic energy  EATOM  =     26580.56019858
  Solvation  Ediel_sol  =         0.00000000
  ---------------------------------------------------
  free energy    TOTEN  =     -1429.28253793 eV

  energy without entropy =    -1429.28253793  energy(sigma->0) =    -1429.28253793


--------------------------------------------------------------------------------------------------------




--------------------------------------- Iteration      1(   7)  ---------------------------------------


    POTLOK:  cpu time    0.2801: real time    0.2822
    SETDIJ:  cpu time    1.1959: real time    1.1960
     EDDAV:  cpu time   14.1660: real time   14.1668
       DOS:  cpu time    0.0004: real time    0.0004
    CHARGE:  cpu time    2.8101: real time    2.8102
    MIXING:  cpu time    0.0016: real time    0.0016
    --------------------------------------------
      LOOP:  cpu time   18.4542: real time   18.4572

 eigenvalue-minimisations  :  3184
 total energy-change (2. order) : 0.5016840E+00  (-0.7494901E+00)
 number of electron     351.9999997 magnetization 
 augmentation part       -4.6140529 magnetization 

 Broyden mixing:
  rms(total) = 0.36152E+00    rms(broyden)= 0.36150E+00
  rms(prec ) = 0.39554E+00
  weight for this iteration     100.00

 eigenvalues of (default mixing * dielectric matrix)
  average eigenvalue GAMMA=   1.3351
  1.3351  1.3351

 Free energy of the ion-electron system (eV)
  ---------------------------------------------------
  alpha Z        PSCENC =       892.99476195
  Ewald energy   TEWEN  =    -18217.56302951
  -Hartree energ DENC   =     -7562.77944878
  -exchange      EXHF   =         0.00000000
  -V(xc)+E(xc)   XCENC  =       961.24726394
  PAW double counting   =     22733.37625598   -23806.20110532
  entropy T*S    EENTRO =        -0.00000000
  eigenvalues    EBANDS =     -3010.41575072
  atomic energy  EATOM  =     26580.56019858
  Solvation  Ediel_sol  =         0.00000000
  ---------------------------------------------------
  free energy    TOTEN  =     -1428.78085389 eV

  energy without entropy =    -1428.78085389  energy(sigma->0) =    -1428.78085389


--------------------------------------------------------------------------------------------------------




--------------------------------------- Iteration      1(   8)  ---------------------------------------


    POTLOK:  cpu time    0.2783: real time    0.2909
    SETDIJ:  cpu time    1.2005: real time    1.2006
     EDDAV:  cpu time   14.1138: real time   14.1146
       DOS:  cpu time    0.0004: real time    0.0004
    CHARGE:  cpu time    2.8150: real time    2.8150
    MIXING:  cpu time    0.0016: real time    0.0016
    --------------------------------------------
      LOOP:  cpu time   18.4094: real time   18.4229

 eigenvalue-minimisations  :  3168
 total energy-change (2. order) :-0.1740763E+00  (-0.3719020E-01)
 number of electron     351.9999997 magnetization 
 augmentation part       -4.6867710 magnetization 

 Broyden mixing:
  rms(total) = 0.20920E+00    rms(broyden)= 0.20920E+00
  rms(prec ) = 0.22937E+00
  weight for this iteration     100.00

 eigenvalues of (default mixing * dielectric matrix)
  average eigenvalue GAMMA=   1.7646
  1.0908  1.3318  2.8710

 Free energy of the ion-electron system (eV)
  ---------------------------------------------------
  alpha Z        PSCENC =       892.99476195
  Ewald energy   TEWEN  =    -18217.56302951
  -Hartree energ DENC   =     -7568.82964955
  -exchange      EXHF   =         0.00000000
  -V(xc)+E(xc)   XCENC  =       962.14213046
  PAW double counting   =     23011.10370890   -24084.38645803
  entropy T*S    EENTRO =        -0.00000000
  eigenvalues    EBANDS =     -3004.97659297
  atomic energy  EATOM  =     26580.56019858
  Solvation  Ediel_sol  =         0.00000000
  ---------------------------------------------------
  free energy    TOTEN  =     -1428.95493019 eV

  energy without entropy =    -1428.95493019  energy(sigma->0) =    -1428.95493019


--------------------------------------------------------------------------------------------------------




--------------------------------------- Iteration      1(   9)  ---------------------------------------


    POTLOK:  cpu time    0.3017: real time    0.3117
    SETDIJ:  cpu time    1.1956: real time    1.1957
     EDDAV:  cpu time   13.1020: real time   13.1026
       DOS:  cpu time    0.0005: real time    0.0004
    CHARGE:  cpu time    2.8134: real time    2.8135
    MIXING:  cpu time    0.0018: real time    0.0018
    --------------------------------------------
      LOOP:  cpu time   17.4151: real time   17.4257

 eigenvalue-minimisations  :  2816
 total energy-change (2. order) :-0.8142118E-01  (-0.1528371E-01)
 number of electron     351.9999997 magnetization 
 augmentation part       -4.7333180 magnetization 

 Broyden mixing:
  rms(total) = 0.48887E-01    rms(broyden)= 0.48886E-01
  rms(prec ) = 0.51827E-01
  weight for this iteration     100.00

 eigenvalues of (default mixing * dielectric matrix)
  average eigenvalue GAMMA=   1.4796
  2.5725  1.2535  1.2535  0.8389

 Free energy of the ion-electron system (eV)
  ---------------------------------------------------
  alpha Z        PSCENC =       892.99476195
  Ewald energy   TEWEN  =    -18217.56302951
  -Hartree energ DENC   =     -7575.66759677
  -exchange      EXHF   =         0.00000000
  -V(xc)+E(xc)   XCENC  =       964.14596280
  PAW double counting   =     23395.80544903   -24470.05091932
  entropy T*S    EENTRO =        -0.00000000
  eigenvalues    EBANDS =     -2999.26117813
  atomic energy  EATOM  =     26580.56019858
  Solvation  Ediel_sol  =         0.00000000
  ---------------------------------------------------
  free energy    TOTEN  =     -1429.03635137 eV

  energy without entropy =    -1429.03635137  energy(sigma->0) =    -1429.03635137


--------------------------------------------------------------------------------------------------------




--------------------------------------- Iteration      1(  10)  ---------------------------------------


    POTLOK:  cpu time    0.2546: real time    0.3004
    SETDIJ:  cpu time    1.1955: real time    1.1955
     EDDAV:  cpu time   15.5408: real time   15.5414
       DOS:  cpu time    0.0004: real time    0.0004
    CHARGE:  cpu time    2.8147: real time    2.8148
    MIXING:  cpu time    0.0016: real time    0.0016
    --------------------------------------------
      LOOP:  cpu time   19.8075: real time   19.8541

 eigenvalue-minimisations  :  3664
 total energy-change (2. order) :-0.9991199E-03  (-0.9832373E-03)
 number of electron     351.9999997 magnetization 
 augmentation part       -4.7184131 magnetization 

 Broyden mixing:
  rms(total) = 0.27556E-01    rms(broyden)= 0.27555E-01
  rms(prec ) = 0.30146E-01
  weight for this iteration     100.00

 eigenvalues of (default mixing * dielectric matrix)
  average eigenvalue GAMMA=   1.5321
  2.2990  2.2990  1.1101  1.1101  0.8424

 Free energy of the ion-electron system (eV)
  ---------------------------------------------------
  alpha Z        PSCENC =       892.99476195
  Ewald energy   TEWEN  =    -18217.56302951
  -Hartree energ DENC   =     -7573.95109437
  -exchange      EXHF   =         0.00000000
  -V(xc)+E(xc)   XCENC  =       963.90445090
  PAW double counting   =     23346.57606650   -24420.81820717
  entropy T*S    EENTRO =        -0.00000000
  eigenvalues    EBANDS =     -3000.74049736
  atomic energy  EATOM  =     26580.56019858
  Solvation  Ediel_sol  =         0.00000000
  ---------------------------------------------------
  free energy    TOTEN  =     -1429.03735049 eV

  energy without entropy =    -1429.03735049  energy(sigma->0) =    -1429.03735049


--------------------------------------------------------------------------------------------------------




--------------------------------------- Iteration      1(  11)  ---------------------------------------


    POTLOK:  cpu time    0.2880: real time    0.2899
    SETDIJ:  cpu time    1.1949: real time    1.1950
     EDDAV:  cpu time   13.5220: real time   13.5227
       DOS:  cpu time    0.0004: real time    0.0004
    CHARGE:  cpu time    2.8228: real time    2.8229
    MIXING:  cpu time    0.0016: real time    0.0016
    --------------------------------------------
      LOOP:  cpu time   17.8297: real time   17.8324

 eigenvalue-minimisations  :  2960
 total energy-change (2. order) :-0.2583661E-02  (-0.2252946E-03)
 number of electron     351.9999997 magnetization 
 augmentation part       -4.7154537 magnetization 

 Broyden mixing:
  rms(total) = 0.99063E-02    rms(broyden)= 0.99062E-02
  rms(prec ) = 0.12256E-01
  weight for this iteration     100.00

 eigenvalues of (default mixing * dielectric matrix)
  average eigenvalue GAMMA=   1.5994
  2.6441  2.6441  1.2527  1.2527  0.9014  0.9014

 Free energy of the ion-electron system (eV)
  ---------------------------------------------------
  alpha Z        PSCENC =       892.99476195
  Ewald energy   TEWEN  =    -18217.56302951
  -Hartree energ DENC   =     -7571.96655611
  -exchange      EXHF   =         0.00000000
  -V(xc)+E(xc)   XCENC  =       963.81488206
  PAW double counting   =     23311.62341351   -24385.97592759
  entropy T*S    EENTRO =        -0.00000000
  eigenvalues    EBANDS =     -3002.52767703
  atomic energy  EATOM  =     26580.56019858
  Solvation  Ediel_sol  =         0.00000000
  ---------------------------------------------------
  free energy    TOTEN  =     -1429.03993415 eV

  energy without entropy =    -1429.03993415  energy(sigma->0) =    -1429.03993415


--------------------------------------------------------------------------------------------------------




--------------------------------------- Iteration      1(  12)  ---------------------------------------


    POTLOK:  cpu time    0.2834: real time    0.3043
    SETDIJ:  cpu time    1.1955: real time    1.1956
     EDDAV:  cpu time   13.3574: real time   13.3579
       DOS:  cpu time    0.0005: real time    0.0004
    CHARGE:  cpu time    2.8195: real time    2.8196
    MIXING:  cpu time    0.0017: real time    0.0017
    --------------------------------------------
      LOOP:  cpu time   17.6579: real time   17.6794

 eigenvalue-minimisations  :  2904
 total energy-change (2. order) :-0.1062500E-02  (-0.1068622E-03)
 number of electron     351.9999997 magnetization 
 augmentation part       -4.7190188 magnetization 

 Broyden mixing:
  rms(total) = 0.41885E-02    rms(broyden)= 0.41882E-02
  rms(prec ) = 0.47216E-02
  weight for this iteration     100.00

 eigenvalues of (default mixing * dielectric matrix)
  average eigenvalue GAMMA=   1.6376
  3.0080  2.5322  1.7653  1.2191  0.9839  0.9774  0.9774

 Free energy of the ion-electron system (eV)
  ---------------------------------------------------
  alpha Z        PSCENC =       892.99476195
  Ewald energy   TEWEN  =    -18217.56302951
  -Hartree energ DENC   =     -7572.02767310
  -exchange      EXHF   =         0.00000000
  -V(xc)+E(xc)   XCENC  =       963.94659918
  PAW double counting   =     23317.04888503   -24391.52044145
  entropy T*S    EENTRO =        -0.00000000
  eigenvalues    EBANDS =     -3002.48029733
  atomic energy  EATOM  =     26580.56019858
  Solvation  Ediel_sol  =         0.00000000
  ---------------------------------------------------
  free energy    TOTEN  =     -1429.04099665 eV

  energy without entropy =    -1429.04099665  energy(sigma->0) =    -1429.04099665


--------------------------------------------------------------------------------------------------------




--------------------------------------- Iteration      1(  13)  ---------------------------------------


    POTLOK:  cpu time    0.2546: real time    0.3025
    SETDIJ:  cpu time    1.1979: real time    1.1979
     EDDAV:  cpu time   14.3535: real time   14.3540
       DOS:  cpu time    0.0004: real time    0.0004
    CHARGE:  cpu time    2.8160: real time    2.8161
    MIXING:  cpu time    0.0019: real time    0.0019
    --------------------------------------------
      LOOP:  cpu time   18.6243: real time   18.6729

 eigenvalue-minimisations  :  3248
 total energy-change (2. order) :-0.1393236E-04  (-0.1015460E-04)
 number of electron     351.9999997 magnetization 
 augmentation part       -4.7184838 magnetization 

 Broyden mixing:
  rms(total) = 0.16277E-02    rms(broyden)= 0.16276E-02
  rms(prec ) = 0.16903E-02
  weight for this iteration     100.00

 eigenvalues of (default mixing * dielectric matrix)
  average eigenvalue GAMMA=   1.5755
  3.0016  2.5917  1.6899  1.3154  1.1111  1.1111  0.9587  0.8242

 Free energy of the ion-electron system (eV)
  ---------------------------------------------------
  alpha Z        PSCENC =       892.99476195
  Ewald energy   TEWEN  =    -18217.56302951
  -Hartree energ DENC   =     -7572.41883782
  -exchange      EXHF   =         0.00000000
  -V(xc)+E(xc)   XCENC  =       963.97460818
  PAW double counting   =     23313.95016794   -24388.41557137
  entropy T*S    EENTRO =        -0.00000000
  eigenvalues    EBANDS =     -3002.12330852
  atomic energy  EATOM  =     26580.56019858
  Solvation  Ediel_sol  =         0.00000000
  ---------------------------------------------------
  free energy    TOTEN  =     -1429.04101058 eV

  energy without entropy =    -1429.04101058  energy(sigma->0) =    -1429.04101058


--------------------------------------------------------------------------------------------------------




--------------------------------------- Iteration      1(  14)  ---------------------------------------


    POTLOK:  cpu time    0.2616: real time    0.2993
    SETDIJ:  cpu time    1.1952: real time    1.1953
     EDDAV:  cpu time   13.2076: real time   13.2081
       DOS:  cpu time    0.0004: real time    0.0004
    CHARGE:  cpu time    2.8213: real time    2.8215
    MIXING:  cpu time    0.0018: real time    0.0018
    --------------------------------------------
      LOOP:  cpu time   17.4879: real time   17.5263

 eigenvalue-minimisations  :  2840
 total energy-change (2. order) :-0.2661332E-04  (-0.9360426E-06)
 number of electron     351.9999997 magnetization 
 augmentation part       -4.7179880 magnetization 

 Broyden mixing:
  rms(total) = 0.84268E-03    rms(broyden)= 0.84266E-03
  rms(prec ) = 0.86694E-03
  weight for this iteration     100.00

 eigenvalues of (default mixing * dielectric matrix)
  average eigenvalue GAMMA=   1.6627
  2.9443  2.6951  2.1340  2.1340  1.1234  1.1234  0.9739  0.9739  0.8625

 Free energy of the ion-electron system (eV)
  ---------------------------------------------------
  alpha Z        PSCENC =       892.99476195
  Ewald energy   TEWEN  =    -18217.56302951
  -Hartree energ DENC   =     -7572.43589008
  -exchange      EXHF   =         0.00000000
  -V(xc)+E(xc)   XCENC  =       963.97405742
  PAW double counting   =     23313.59045104   -24388.05292226
  entropy T*S    EENTRO =        -0.00000000
  eigenvalues    EBANDS =     -3002.10866433
  atomic energy  EATOM  =     26580.56019858
  Solvation  Ediel_sol  =         0.00000000
  ---------------------------------------------------
  free energy    TOTEN  =     -1429.04103719 eV

  energy without entropy =    -1429.04103719  energy(sigma->0) =    -1429.04103719


--------------------------------------------------------------------------------------------------------




--------------------------------------- Iteration      1(  15)  ---------------------------------------


    POTLOK:  cpu time    0.2842: real time    0.3019
    SETDIJ:  cpu time    1.1925: real time    1.1926
     EDDAV:  cpu time   10.1684: real time   10.1688
       DOS:  cpu time    0.0004: real time    0.0004
    CHARGE:  cpu time    2.8214: real time    2.8216
    MIXING:  cpu time    0.0018: real time    0.0018
    --------------------------------------------
      LOOP:  cpu time   14.4688: real time   14.4871

 eigenvalue-minimisations  :  1752
 total energy-change (2. order) : 0.3719372E-05  (-0.8748438E-07)
 number of electron     351.9999997 magnetization 
 augmentation part       -4.7181286 magnetization 

 Broyden mixing:
  rms(total) = 0.17407E-03    rms(broyden)= 0.17400E-03
  rms(prec ) = 0.19869E-03
  weight for this iteration     100.00

 eigenvalues of (default mixing * dielectric matrix)
  average eigenvalue GAMMA=   1.6319
  3.1254  2.6021  2.6021  1.7752  1.3002  1.0993  1.0993  0.9516  0.9516  0.8124

 Free energy of the ion-electron system (eV)
  ---------------------------------------------------
  alpha Z        PSCENC =       892.99476195
  Ewald energy   TEWEN  =    -18217.56302951
  -Hartree energ DENC   =     -7572.44797720
  -exchange      EXHF   =         0.00000000
  -V(xc)+E(xc)   XCENC  =       963.97482170
  PAW double counting   =     23314.07921366   -24388.53910334
  entropy T*S    EENTRO =        -0.00000000
  eigenvalues    EBANDS =     -3002.09991931
  atomic energy  EATOM  =     26580.56019858
  Solvation  Ediel_sol  =         0.00000000
  ---------------------------------------------------
  free energy    TOTEN  =     -1429.04103347 eV

  energy without entropy =    -1429.04103347  energy(sigma->0) =    -1429.04103347


--------------------------------------------------------------------------------------------------------




--------------------------------------- Iteration      1(  16)  ---------------------------------------


    POTLOK:  cpu time    0.2908: real time    0.2990
    SETDIJ:  cpu time    1.1984: real time    1.1985
     EDDAV:  cpu time   10.0071: real time   10.0075
       DOS:  cpu time    0.0004: real time    0.0004
    CHARGE:  cpu time    2.8354: real time    2.8355
    MIXING:  cpu time    0.0018: real time    0.0018
    --------------------------------------------
      LOOP:  cpu time   14.3340: real time   14.3428

 eigenvalue-minimisations  :  1696
 total energy-change (2. order) : 0.7093483E-05  (-0.5061441E-07)
 number of electron     351.9999997 magnetization 
 augmentation part       -4.7180717 magnetization 

 Broyden mixing:
  rms(total) = 0.78605E-04    rms(broyden)= 0.78480E-04
  rms(prec ) = 0.84188E-04
  weight for this iteration     100.00

 eigenvalues of (default mixing * dielectric matrix)
  average eigenvalue GAMMA=   1.5965
  3.0763  2.5965  2.5965  1.8309  1.4704  1.1260  1.1260  1.0114  0.9188  0.9042
  0.9042

 Free energy of the ion-electron system (eV)
  ---------------------------------------------------
  alpha Z        PSCENC =       892.99476195
  Ewald energy   TEWEN  =    -18217.56302951
  -Hartree energ DENC   =     -7572.47300988
  -exchange      EXHF   =         0.00000000
  -V(xc)+E(xc)   XCENC  =       963.97642598
  PAW double counting   =     23314.01329963   -24388.47221798
  entropy T*S    EENTRO =        -0.00000000
  eigenvalues    EBANDS =     -3002.07745514
  atomic energy  EATOM  =     26580.56019858
  Solvation  Ediel_sol  =         0.00000000
  ---------------------------------------------------
  free energy    TOTEN  =     -1429.04102638 eV

  energy without entropy =    -1429.04102638  energy(sigma->0) =    -1429.04102638


--------------------------------------------------------------------------------------------------------




--------------------------------------- Iteration      1(  17)  ---------------------------------------


    POTLOK:  cpu time    0.2875: real time    0.3056
    SETDIJ:  cpu time    1.2007: real time    1.2007
     EDDAV:  cpu time    9.8789: real time    9.8793
       DOS:  cpu time    0.0004: real time    0.0004
    CHARGE:  cpu time    2.8252: real time    2.8253
    MIXING:  cpu time    0.0022: real time    0.0022
    --------------------------------------------
      LOOP:  cpu time   14.1948: real time   14.2135

 eigenvalue-minimisations  :  1648
 total energy-change (2. order) : 0.5368852E-05  (-0.1157926E-07)
 number of electron     351.9999997 magnetization 
 augmentation part       -4.7180648 magnetization 

 Broyden mixing:
  rms(total) = 0.19532E-04    rms(broyden)= 0.19035E-04
  rms(prec ) = 0.23114E-04
  weight for this iteration     100.00

 eigenvalues of (default mixing * dielectric matrix)
  average eigenvalue GAMMA=   1.7010
  3.3529  2.8144  2.8144  2.3827  1.8118  1.2908  1.0796  1.0796  0.9199  0.9199
  0.9731  0.9731

 Free energy of the ion-electron system (eV)
  ---------------------------------------------------
  alpha Z        PSCENC =       892.99476195
  Ewald energy   TEWEN  =    -18217.56302951
  -Hartree energ DENC   =     -7572.47344324
  -exchange      EXHF   =         0.00000000
  -V(xc)+E(xc)   XCENC  =       963.97608979
  PAW double counting   =     23313.96471090   -24388.42360673
  entropy T*S    EENTRO =        -0.00000000
  eigenvalues    EBANDS =     -3002.07670275
  atomic energy  EATOM  =     26580.56019858
  Solvation  Ediel_sol  =         0.00000000
  ---------------------------------------------------
  free energy    TOTEN  =     -1429.04102101 eV

  energy without entropy =    -1429.04102101  energy(sigma->0) =    -1429.04102101


--------------------------------------------------------------------------------------------------------




--------------------------------------- Iteration      1(  18)  ---------------------------------------


    POTLOK:  cpu time    0.2938: real time    0.3077
    SETDIJ:  cpu time    1.1998: real time    1.1998
     EDDAV:  cpu time    9.9119: real time    9.9123
       DOS:  cpu time    0.0004: real time    0.0004
    CHARGE:  cpu time    2.8325: real time    2.8326
    MIXING:  cpu time    0.0021: real time    0.0021
    --------------------------------------------
      LOOP:  cpu time   14.2406: real time   14.2550

 eigenvalue-minimisations  :  1656
 total energy-change (2. order) : 0.2073201E-05  (-0.5453509E-08)
 number of electron     351.9999997 magnetization 
 augmentation part       -4.7180771 magnetization 

 Broyden mixing:
  rms(total) = 0.19140E-04    rms(broyden)= 0.18635E-04
  rms(prec ) = 0.21189E-04
  weight for this iteration     100.00

 eigenvalues of (default mixing * dielectric matrix)
  average eigenvalue GAMMA=   1.6233
  3.3764  2.7971  2.7971  2.1141  1.8479  1.4793  1.1846  1.0583  1.0583  0.9163
  0.9163  0.9192  0.6380

 Free energy of the ion-electron system (eV)
  ---------------------------------------------------
  alpha Z        PSCENC =       892.99476195
  Ewald energy   TEWEN  =    -18217.56302951
  -Hartree energ DENC   =     -7572.47621989
  -exchange      EXHF   =         0.00000000
  -V(xc)+E(xc)   XCENC  =       963.97627271
  PAW double counting   =     23313.94435447   -24388.40300154
  entropy T*S    EENTRO =        -0.00000000
  eigenvalues    EBANDS =     -3002.07435570
  atomic energy  EATOM  =     26580.56019858
  Solvation  Ediel_sol  =         0.00000000
  ---------------------------------------------------
  free energy    TOTEN  =     -1429.04101894 eV

  energy without entropy =    -1429.04101894  energy(sigma->0) =    -1429.04101894


--------------------------------------------------------------------------------------------------------




--------------------------------------- Iteration      1(  19)  ---------------------------------------


    POTLOK:  cpu time    0.3021: real time    0.3050
    SETDIJ:  cpu time    1.2002: real time    1.2003
     EDDAV:  cpu time    9.8983: real time    9.8988
       DOS:  cpu time    0.0003: real time    0.0003
    --------------------------------------------
      LOOP:  cpu time   11.4009: real time   11.4043

 eigenvalue-minimisations  :  1648
 total energy-change (2. order) :-0.8741190E-06  (-0.1868045E-08)
 number of electron     351.9999997 magnetization 
 augmentation part       -4.7180771 magnetization 

 Free energy of the ion-electron system (eV)
  ---------------------------------------------------
  alpha Z        PSCENC =       892.99476195
  Ewald energy   TEWEN  =    -18217.56302951
  -Hartree energ DENC   =     -7572.47611711
  -exchange      EXHF   =         0.00000000
  -V(xc)+E(xc)   XCENC  =       963.97631962
  PAW double counting   =     23313.95035976   -24388.40891144
  entropy T*S    EENTRO =        -0.00000000
  eigenvalues    EBANDS =     -3002.07460166
  atomic energy  EATOM  =     26580.56019858
  Solvation  Ediel_sol  =         0.00000000
  ---------------------------------------------------
  free energy    TOTEN  =     -1429.04101981 eV

  energy without entropy =    -1429.04101981  energy(sigma->0) =    -1429.04101981


--------------------------------------------------------------------------------------------------------




 average (electrostatic) potential at core
  the test charge radii are     1.1312  1.1541  1.0178
  (the norm of the test charge is              1.0000)
       1 -55.5661       2 -55.5661       3 -55.5661       4 -55.5661       5 -55.5661
       6 -55.5661       7 -55.5661       8 -55.5661       9-101.4031      10-101.4031
      11-101.4031      12-101.4031      13-101.4031      14-101.4031      15-101.4031
      16-101.4031      17 -68.9369      18 -68.9369      19 -68.9369      20 -68.9369
      21 -68.9369      22 -68.9369      23 -68.9369      24 -68.9369      25 -68.9367
      26 -68.9367      27 -68.9367      28 -68.9367      29 -68.9367      30 -68.9367
      31 -68.9367      32 -68.9367      33 -68.9369      34 -68.9369      35 -68.9369
      36 -68.9369      37 -68.9369      38 -68.9369      39 -68.9369      40 -68.9369



 E-fermi :   1.0388     XC(G=0):  -8.0363     alpha+bet : -7.0048


 k-point     1 :       0.0000    0.0000    0.0000
  band No.  band energies     occupation 
      1     -21.0627      2.00000
      2     -21.0617      2.00000
      3     -21.0617      2.00000
      4     -21.0617      2.00000
      5     -21.0607      2.00000
      6     -21.0607      2.00000
      7     -21.0607      2.00000
      8     -21.0594      2.00000
      9     -16.2997      2.00000
     10     -16.2996      2.00000
     11     -16.2993      2.00000
     12     -16.2993      2.00000
     13     -16.2992      2.00000
     14     -16.2641      2.00000
     15     -16.2641      2.00000
     16     -16.2637      2.00000
     17     -16.2235      2.00000
     18     -16.2235      2.00000
     19     -16.2235      2.00000
     20     -16.1760      2.00000
     21     -16.1758      2.00000
     22     -16.1758      2.00000
     23     -16.1755      2.00000
     24     -16.1753      2.00000
     25     -16.0795      2.00000
     26     -16.0795      2.00000
     27     -16.0795      2.00000
     28     -16.0792      2.00000
     29     -16.0792      2.00000
     30     -16.0791      2.00000
     31     -16.0786      2.00000
     32     -16.0786      2.00000
     33     -16.0786      2.00000
     34     -16.0786      2.00000
     35     -16.0786      2.00000
     36     -16.0785      2.00000
     37     -16.0784      2.00000
     38     -16.0783      2.00000
     39     -16.0783      2.00000
     40     -16.0782      2.00000
     41     -16.0782      2.00000
     42     -16.0782      2.00000
     43     -16.0774      2.00000
     44     -16.0772      2.00000
     45     -16.0772      2.00000
     46     -16.0771      2.00000
     47     -16.0771      2.00000
     48     -16.0770      2.00000
     49     -14.3894      2.00000
     50     -14.1613      2.00000
     51     -14.1610      2.00000
     52     -14.1610      2.00000
     53     -13.9961      2.00000
     54     -13.9950      2.00000
     55     -13.9950      2.00000
     56     -13.9945      2.00000
     57     -13.9945      2.00000
     58     -13.9939      2.00000
     59     -13.9925      2.00000
     60     -13.9922      2.00000
     61     -13.9922      2.00000
     62     -13.9909      2.00000
     63     -13.9885      2.00000
     64     -13.9883      2.00000
     65     -13.9049      2.00000
     66     -13.9049      2.00000
     67     -13.9047      2.00000
     68     -13.6332      2.00000
     69     -13.6324      2.00000
     70     -13.6305      2.00000
     71     -13.6304      2.00000
     72     -13.6304      2.00000
     73      -8.2581      2.00000
     74      -7.6483      2.00000
     75      -7.6451      2.00000
     76      -7.6451      2.00000
     77      -7.4517      2.00000
     78      -7.4512      2.00000
     79      -7.4498      2.00000
     80      -7.4296      2.00000
     81      -7.4285      2.00000
     82      -7.4252      2.00000
     83      -7.4252      2.00000
     84      -7.4250      2.00000
     85      -7.4250      2.00000
     86      -7.4159      2.00000
     87      -7.4113      2.00000
     88      -7.4111      2.00000
     89      -7.4098      2.00000
     90      -7.4098      2.00000
     91      -7.4034      2.00000
     92      -7.4019      2.00000
     93      -7.4019      2.00000
     94      -7.4019      2.00000
     95      -7.3994      2.00000
     96      -7.3957      2.00000
     97      -7.3957      2.00000
     98      -7.3945      2.00000
     99      -7.3937      2.00000
    100      -7.3937      2.00000
    101      -6.9842      2.00000
    102      -6.9842      2.00000
    103      -6.9831      2.00000
    104      -6.2116      2.00000
    105      -3.4227      2.00000
    106      -3.4154      2.00000
    107      -3.4120      2.00000
    108      -3.3281      2.00000
    109      -3.3231      2.00000
    110      -3.3231      2.00000
    111      -3.3210      2.00000
    112      -3.3210      2.00000
    113      -3.3160      2.00000
    114      -3.1714      2.00000
    115      -3.1714      2.00000
    116      -3.1688      2.00000
    117      -2.1421      2.00000
    118      -2.1421      2.00000
    119      -2.1412      2.00000
    120      -1.9471      2.00000
    121      -1.9461      2.00000
    122      -1.9450      2.00000
    123      -1.8802      2.00000
    124      -1.8802      2.00000
    125      -1.8781      2.00000
    126      -1.5691      2.00000
    127      -1.5522      2.00000
    128      -1.5522      2.00000
    129      -1.5387      2.00000
    130      -1.5356      2.00000
    131      -1.5356      2.00000
    132      -1.4637      2.00000
    133      -1.4637      2.00000
    134      -1.4572      2.00000
    135      -1.4572      2.00000
    136      -1.4550      2.00000
    137      -1.4548      2.00000
    138      -1.3962      2.00000
    139      -1.3814      2.00000
    140      -1.3814      2.00000
    141      -1.3771      2.00000
    142      -1.3722      2.00000
    143      -1.3722      2.00000
    144      -1.3611      2.00000
    145      -1.3611      2.00000
    146      -1.3554      2.00000
    147      -1.3298      2.00000
    148      -1.3292      2.00000
    149      -1.3212      2.00000
    150      -1.3212      2.00000
    151      -1.3183      2.00000
    152      -1.2627      2.00000
    153      -1.2576      2.00000
    154      -1.2362      2.00000
    155      -1.2339      2.00000
    156      -1.2299      2.00000
    157      -1.2293      2.00000
    158      -1.2293      2.00000
    159      -1.2270      2.00000
    160      -1.2270      2.00000
    161      -1.1246      2.00000
    162      -1.1221      2.00000
    163      -1.1172      2.00000
    164      -0.7805      2.00000
    165      -0.7805      2.00000
    166      -0.7742      2.00000
    167      -0.7689      2.00000
    168      -0.7669      2.00000
    169      -0.7601      2.00000
    170      -0.4764      2.00000
    171      -0.4720      2.00000
    172      -0.4720      2.00000
    173       0.2556      2.00000
    174       0.2556      2.00000
    175       0.2572      2.00000
    176       0.9680      2.00000
    177       2.8286      0.00000
    178       2.8363      0.00000
    179       2.8386      0.00000
    180       3.3344      0.00000
    181       3.3439      0.00000
    182       3.3439      0.00000
    183       3.3466      0.00000
    184       3.3466      0.00000
    185       3.3566      0.00000
    186       3.8102      0.00000
    187       3.8102      0.00000
    188       3.8127      0.00000
    189       4.5718      0.00000
    190       5.5755      0.00000
    191       5.5835      0.00000
    192       6.0157      0.00000
    193       6.0157      0.00000
    194       6.0181      0.00000
    195       6.1324      0.00000
    196       6.1595      0.00000
[...]
 total charge-density along one line

 pseudopotential strength for first ion, spin component:           1
 18.094  -4.737  -0.000   0.000  -0.000   0.000  -0.000   0.000
 -4.737   1.249   0.000  -0.000   0.000  -0.000   0.000  -0.000
 -0.000   0.000   2.314   0.000   0.000  -2.779  -0.000  -0.000
  0.000  -0.000   0.000   2.315   0.000  -0.000  -2.779  -0.000
 -0.000   0.000   0.000   0.000   2.315  -0.000  -0.000  -2.780
  0.000  -0.000  -2.779  -0.000  -0.000   3.307   0.000   0.000
 -0.000   0.000  -0.000  -2.779  -0.000   0.000   3.308   0.000
  0.000  -0.000  -0.000  -0.000  -2.780   0.000   0.000   3.309
  0.000  -0.000  -0.000  -0.000   0.000   0.001   0.000  -0.000
  0.000  -0.000   0.000  -0.001  -0.000  -0.000   0.001   0.000
  0.000  -0.000  -0.000   0.000   0.000   0.000  -0.000  -0.001
  0.000  -0.000  -0.000   0.000   0.000   0.000  -0.000  -0.000
  0.000  -0.000   0.000   0.000   0.000  -0.000  -0.000  -0.000
 total augmentation occupancy for first ion, spin component:           1
  1.905  -0.151  -0.000   0.000  -0.000  -0.000   0.000  -0.000   0.000   0.000   0.000   0.000   0.001
 -0.151   0.080  -0.001   0.000  -0.001   0.001   0.000   0.001  -0.001   0.000  -0.000   0.000  -0.002
 -0.000  -0.001   2.011   0.000   0.000  -0.001   0.000   0.000  -0.001  -0.000  -0.001   0.000   0.001
  0.000   0.000   0.000   2.013   0.000   0.000  -0.000   0.000   0.000  -0.001  -0.000   0.001  -0.000
 -0.000  -0.001   0.000   0.000   2.014   0.000   0.000   0.001   0.001  -0.000   0.001   0.000   0.000
 -0.000   0.001  -0.001   0.000   0.000   0.005   0.000  -0.000   0.001   0.000   0.001   0.000  -0.000
  0.000   0.000   0.000  -0.000   0.000   0.000   0.005   0.000  -0.000   0.001   0.000  -0.000   0.000
 -0.000   0.001   0.000   0.000   0.001  -0.000   0.000   0.004  -0.001  -0.000  -0.001  -0.000  -0.000
  0.000  -0.001  -0.001   0.000   0.001   0.001  -0.000  -0.001   0.003   0.000   0.000   0.000  -0.000
  0.000   0.000  -0.000  -0.001  -0.000   0.000   0.001  -0.000   0.000   0.004   0.000  -0.000   0.000
  0.000  -0.000  -0.001  -0.000   0.001   0.001   0.000  -0.001   0.000   0.000   0.002  -0.000  -0.000
  0.000   0.000   0.000   0.001   0.000   0.000  -0.000  -0.000   0.000  -0.000  -0.000   0.002  -0.000
  0.001  -0.002   0.001  -0.000   0.000  -0.000   0.000  -0.000  -0.000   0.000  -0.000  -0.000   0.002


------------------------ aborting loop because EDIFF is reached ----------------------------------------





 total charge     

# of ion       s       p       d       tot
------------------------------------------
    1        1.781   4.717   0.011   6.509
    2        1.781   4.717   0.011   6.509
    3        1.781   4.717   0.011   6.509
    4        1.781   4.717   0.011   6.509
    5        1.781   4.717   0.011   6.509
    6        1.781   4.717   0.011   6.509
    7        1.781   4.717   0.011   6.509
    8        1.781   4.717   0.011   6.509
    9        1.555   0.446   9.841  11.842
   10        1.555   0.446   9.841  11.842
   11        1.555   0.446   9.841  11.842
   12        1.555   0.446   9.841  11.842
   13        1.555   0.446   9.841  11.842
   14        1.555   0.446   9.841  11.842
   15        1.555   0.446   9.841  11.842
   16        1.555   0.446   9.841  11.842
   17        1.613   3.310   0.007   4.930
   18        1.613   3.310   0.007   4.930
   19        1.613   3.310   0.007   4.930
   20        1.613   3.310   0.007   4.930
   21        1.613   3.310   0.007   4.930
   22        1.613   3.310   0.007   4.930
   23        1.613   3.310   0.007   4.930
   24        1.613   3.310   0.007   4.930
   25        1.615   3.288   0.007   4.910
   26        1.615   3.288   0.007   4.910
   27        1.615   3.288   0.007   4.910
   28        1.615   3.288   0.007   4.910
   29        1.615   3.288   0.007   4.910
   30        1.615   3.288   0.007   4.910
   31        1.615   3.288   0.007   4.910
   32        1.615   3.288   0.007   4.910
   33        1.617   3.265   0.008   4.890
   34        1.617   3.265   0.008   4.890
   35        1.617   3.265   0.008   4.890
   36        1.617   3.265   0.008   4.890
   37        1.617   3.265   0.008   4.890
   38        1.617   3.265   0.008   4.890
   39        1.617   3.265   0.008   4.890
   40        1.617   3.265   0.008   4.890
--------------------------------------------------
tot         65.451 120.213  78.987 264.650

    CHARGE:  cpu time    0.3844: real time    0.3845
    FORLOC:  cpu time    0.0114: real time    0.0114
    FORNL :  cpu time    1.5602: real time    1.5602
    STRESS:  cpu time   39.5531: real time   39.5543
    FORCOR:  cpu time    0.2403: real time    0.2403
    FORHAR:  cpu time    0.0276: real time    0.0276
    MIXING:  cpu time    0.0020: real time    0.0020
    OFIELD:  cpu time    0.0001: real time    0.0001

  FORCE on cell =-STRESS in cart. coord.  units (eV):
  Direction    XX          YY          ZZ          XY          YZ          ZX
  --------------------------------------------------------------------------------------
  Alpha Z   892.99476   892.99476   892.99476
  Ewald   -6071.33901 -6071.33901 -6074.96898   -21.70549     0.00000    -0.00000
  Hartree  2524.45069  2524.45069  2523.57442   -11.96587    -0.00000    -0.00000
  E(xc)   -1478.93433 -1478.60553 -1478.70744    -0.03068     0.00001     0.00001
  Local   -2987.26061 -2987.26061 -2982.90354    33.59117    -0.00000     0.00000
  n-local  1808.76554  1806.03710  1807.37705    -0.10883     0.00001     0.00001
  augment   811.27247   811.27247   811.34893    -0.02016     0.00001     0.00001
  Kinetic  4498.05964  4511.59570  4504.83016     0.01278    -0.00001    -0.00000
  Fock        0.00000     0.00000     0.00000     0.00000     0.00000     0.00000
  -------------------------------------------------------------------------------------
  Total       3.57735     3.57735     3.54536    -0.22710     0.00000     0.00000
  in kB       3.54637     3.54637     3.51465    -0.22513     0.00000     0.00000
  external pressure =        3.54 kB  Pullay stress =        0.00 kB


 VOLUME and BASIS-vectors are now :
 -----------------------------------------------------------------------------
  energy-cutoff  :      300.00
  volume of cell :     1616.17
      direct lattice vectors                 reciprocal lattice vectors
    11.735352000  0.000000000  0.000000000     0.085212612  0.000000000  0.000000000
     0.000000000 11.735352000  0.000000000     0.000000000  0.085212612  0.000000000
     0.000000000  0.000000000 11.735352000     0.000000000  0.000000000  0.085212612

  length of vectors
    11.735352000 11.735352000 11.735352000     0.085212612  0.085212612  0.085212612


 FORCES acting on ions
    electron-ion (+dipol)            ewald-force                    non-local-force                 convergence-correction
 -----------------------------------------------------------------------------------------------
   0.821E+00 0.814E+00 0.369E-08   -.806E+00 -.798E+00 -.151E-13   -.260E-01 -.251E-01 -.669E-24   -.194E-05 -.239E-06 0.136E-12
   -.821E+00 -.814E+00 -.370E-08   0.806E+00 0.798E+00 -.799E-14   0.260E-01 0.251E-01 0.181E-23   0.194E-05 0.239E-06 -.947E-13
   0.814E+00 0.821E+00 0.369E-08   -.798E+00 -.806E+00 -.124E-13   -.251E-01 -.260E-01 -.424E-24   -.239E-06 -.194E-05 0.143E-12
   -.814E+00 -.821E+00 -.370E-08   0.798E+00 0.806E+00 -.160E-13   0.251E-01 0.260E-01 -.325E-24   0.239E-06 0.194E-05 -.102E-12
   0.814E+00 0.821E+00 0.369E-08   -.798E+00 -.806E+00 -.142E-13   -.251E-01 -.260E-01 0.426E-24   -.239E-06 -.194E-05 0.156E-12
   -.814E+00 -.821E+00 -.369E-08   0.798E+00 0.806E+00 -.178E-13   0.251E-01 0.260E-01 -.307E-23   0.239E-06 0.194E-05 -.119E-12
   0.821E+00 0.814E+00 0.370E-08   -.806E+00 -.798E+00 -.142E-13   -.260E-01 -.251E-01 -.592E-24   -.194E-05 -.239E-06 0.164E-12
   -.821E+00 -.814E+00 -.370E-08   0.806E+00 0.798E+00 -.142E-13   0.260E-01 0.251E-01 0.110E-23   0.194E-05 0.239E-06 -.128E-12
   0.104E-12 -.271E-13 -.159E-13   -.249E-13 -.674E-13 -.597E-13   0.000E+00 0.000E+00 0.871E-23   0.765E-13 0.199E-12 -.560E-13
   0.122E-12 -.155E-15 0.115E-11   -.107E-13 -.244E-13 0.276E-13   0.000E+00 0.000E+00 -.497E-23   0.314E-13 0.175E-12 -.337E-12
   0.686E-13 0.121E-11 -.653E-14   -.426E-13 0.683E-13 0.280E-13   0.000E+00 0.132E-22 -.993E-23   0.262E-13 -.258E-12 -.196E-12
   0.518E-13 0.115E-11 0.113E-11   0.000E+00 0.195E-13 -.542E-13   0.000E+00 -.132E-22 -.834E-23   -.226E-13 -.227E-12 -.186E-12
   0.141E-11 -.168E-12 0.629E-11   -.107E-13 0.770E-13 0.429E-13   0.000E+00 0.000E+00 -.444E-23   -.421E-13 0.246E-12 -.372E-13
   0.266E-12 0.921E-12 -.770E-11   -.178E-13 -.444E-15 -.693E-13   0.000E+00 -.662E-23 0.685E-23   -.153E-13 0.229E-12 -.378E-12
   0.172E-11 -.296E-11 0.111E-11   -.213E-13 -.768E-13 -.573E-13   0.000E+00 0.000E+00 -.381E-23   0.370E-13 -.344E-12 -.175E-12
   0.150E-11 -.161E-11 -.136E-11   -.568E-13 -.888E-15 0.222E-13   0.000E+00 0.000E+00 0.809E-23   0.835E-13 -.334E-12 -.220E-12
   0.750E+01 0.527E-02 -.837E+01   -.756E+01 -.527E-02 0.844E+01   0.200E-01 -.254E-04 -.213E-01   0.632E-05 -.582E-07 -.863E-05
   0.750E+01 0.527E-02 0.837E+01   -.756E+01 -.527E-02 -.844E+01   0.200E-01 -.254E-04 0.213E-01   0.632E-05 -.582E-07 0.863E-05
   -.750E+01 -.527E-02 0.837E+01   0.756E+01 0.527E-02 -.844E+01   -.200E-01 0.254E-04 0.213E-01   -.632E-05 0.582E-07 0.863E-05
   -.750E+01 -.527E-02 -.837E+01   0.756E+01 0.527E-02 0.844E+01   -.200E-01 0.254E-04 -.213E-01   -.632E-05 0.582E-07 -.863E-05
   -.750E+01 -.527E-02 0.837E+01   0.756E+01 0.527E-02 -.844E+01   -.200E-01 0.254E-04 0.213E-01   -.632E-05 0.582E-07 0.863E-05
   -.750E+01 -.527E-02 -.837E+01   0.756E+01 0.527E-02 0.844E+01   -.200E-01 0.254E-04 -.213E-01   -.632E-05 0.582E-07 -.863E-05
   0.750E+01 0.527E-02 -.837E+01   -.756E+01 -.527E-02 0.844E+01   0.200E-01 -.254E-04 -.213E-01   0.632E-05 -.582E-07 -.863E-05
   0.750E+01 0.527E-02 0.837E+01   -.756E+01 -.527E-02 -.844E+01   0.200E-01 -.254E-04 0.213E-01   0.632E-05 -.582E-07 0.863E-05
   -.863E+01 0.812E+01 -.936E-08   0.869E+01 -.818E+01 0.160E-13   -.117E-01 0.225E-01 0.477E-23   -.859E-05 0.938E-05 0.214E-12
   0.863E+01 -.812E+01 0.936E-08   -.869E+01 0.818E+01 0.178E-14   0.117E-01 -.225E-01 0.258E-24   0.859E-05 -.938E-05 -.760E-13
   0.812E+01 -.863E+01 -.936E-08   -.818E+01 0.869E+01 -.711E-14   0.225E-01 -.117E-01 -.478E-23   0.938E-05 -.859E-05 0.139E-12
   -.812E+01 0.863E+01 0.936E-08   0.818E+01 -.869E+01 0.320E-13   -.225E-01 0.117E-01 -.112E-23   -.938E-05 0.859E-05 0.519E-15
   0.812E+01 -.863E+01 -.937E-08   -.818E+01 0.869E+01 0.266E-14   0.225E-01 -.117E-01 -.504E-23   0.938E-05 -.859E-05 0.175E-12
   -.812E+01 0.863E+01 0.936E-08   0.818E+01 -.869E+01 0.302E-13   -.225E-01 0.117E-01 -.732E-24   -.938E-05 0.859E-05 -.335E-13
   -.863E+01 0.812E+01 -.936E-08   0.869E+01 -.818E+01 0.178E-13   -.117E-01 0.225E-01 -.215E-23   -.859E-05 0.938E-05 0.125E-12
   0.863E+01 -.812E+01 0.936E-08   -.869E+01 0.818E+01 0.000E+00   0.117E-01 -.225E-01 0.267E-24   0.859E-05 -.938E-05 0.148E-13
   -.527E-02 -.750E+01 0.837E+01   0.527E-02 0.756E+01 -.844E+01   0.254E-04 -.200E-01 0.213E-01   0.582E-07 -.632E-05 0.863E-05
   -.527E-02 -.750E+01 -.837E+01   0.527E-02 0.756E+01 0.844E+01   0.254E-04 -.200E-01 -.213E-01   0.582E-07 -.632E-05 -.863E-05
   0.527E-02 0.750E+01 -.837E+01   -.527E-02 -.756E+01 0.844E+01   -.254E-04 0.200E-01 -.213E-01   -.582E-07 0.632E-05 -.863E-05
   0.527E-02 0.750E+01 0.837E+01   -.527E-02 -.756E+01 -.844E+01   -.254E-04 0.200E-01 0.213E-01   -.582E-07 0.632E-05 0.863E-05
   0.527E-02 0.750E+01 -.837E+01   -.527E-02 -.756E+01 0.844E+01   -.254E-04 0.200E-01 -.213E-01   -.582E-07 0.632E-05 -.863E-05
   0.527E-02 0.750E+01 0.837E+01   -.527E-02 -.756E+01 -.844E+01   -.254E-04 0.200E-01 0.213E-01   -.582E-07 0.632E-05 0.863E-05
   -.527E-02 -.750E+01 0.837E+01   0.527E-02 0.756E+01 -.844E+01   0.254E-04 -.200E-01 0.213E-01   0.582E-07 -.632E-05 0.863E-05
   -.527E-02 -.750E+01 -.837E+01   0.527E-02 0.756E+01 0.844E+01   0.254E-04 -.200E-01 -.213E-01   0.582E-07 -.632E-05 -.863E-05
 -----------------------------------------------------------------------------------------------
   0.106E-10 0.646E-11 0.402E-10   -.372E-13 0.346E-13 -.462E-13   -.347E-17 -.694E-17 0.347E-17   0.176E-12 -.276E-12 -.160E-11


 POSITION                                       TOTAL-FORCE (eV/Angst)
 -----------------------------------------------------------------------------------
      2.93384      2.93384      2.93384        -0.010668     -0.009232      0.000000
      2.93384      2.93384      8.80151         0.010668      0.009232      0.000000
      2.93384      8.80151      2.93384        -0.009232     -0.010668     -0.000000
      2.93384      8.80151      8.80151         0.009232      0.010668     -0.000000
      8.80151      2.93384      2.93384        -0.009232     -0.010668     -0.000000
      8.80151      2.93384      8.80151         0.009232      0.010668      0.000000
      8.80151      8.80151      2.93384        -0.010668     -0.009232      0.000000
      8.80151      8.80151      8.80151         0.010668      0.009232     -0.000000
      0.00000      0.00000      0.00000        -0.000000      0.000000     -0.000000
      0.00000      0.00000      5.86768        -0.000000      0.000000     -0.000000
      0.00000      5.86768      0.00000        -0.000000      0.000000      0.000000
      0.00000      5.86768      5.86768        -0.000000      0.000000      0.000000
      5.86768      0.00000      0.00000        -0.000000      0.000000      0.000000
      5.86768      0.00000      5.86768        -0.000000      0.000000      0.000000
      5.86768      5.86768      0.00000        -0.000000      0.000000     -0.000000
      5.86768      5.86768      5.86768        -0.000000      0.000000     -0.000000
     11.60333      2.93384      0.14669        -0.038796     -0.000023      0.042760
     11.60333      2.93384      5.72098        -0.038796     -0.000023     -0.042760
      0.13202      8.80151     11.58866         0.038796      0.000023     -0.042760
      0.13202      8.80151      6.01437         0.038796      0.000023      0.042760
      5.99970      2.93384     11.58866         0.038796      0.000023     -0.042760
      5.99970      2.93384      6.01437         0.038796      0.000023      0.042760
      5.73565      8.80151      0.14669        -0.038796     -0.000023      0.042760
      5.73565      8.80151      5.72098        -0.038796     -0.000023     -0.042760
      0.14669     11.58866      2.93384         0.048860     -0.042995      0.000000
     11.58866      0.14669      8.80151        -0.048860      0.042995      0.000000
     11.58866      6.01437      2.93384        -0.042995      0.048860      0.000000
      0.14669      5.72098      8.80151         0.042995     -0.048860     -0.000000
      5.72098      0.14669      2.93384        -0.042995      0.048860     -0.000000
      6.01437     11.58866      8.80151         0.042995     -0.048860      0.000000
      6.01437      5.72098      2.93384         0.048860     -0.042995      0.000000
      5.72098      6.01437      8.80151        -0.048860      0.042995      0.000000
      2.93384      0.13202     11.58866         0.000023      0.038796     -0.042760
      2.93384      0.13202      6.01437         0.000023      0.038796      0.042760
      2.93384      5.73565      0.14669        -0.000023     -0.038796      0.042760
      2.93384      5.73565      5.72098        -0.000023     -0.038796     -0.042760
      8.80151     11.60333      0.14669        -0.000023     -0.038796      0.042760
      8.80151     11.60333      5.72098        -0.000023     -0.038796     -0.042760
      8.80151      5.99970     11.58866         0.000023      0.038796     -0.042760
      8.80151      5.99970      6.01437         0.000023      0.038796      0.042760
 -----------------------------------------------------------------------------------
    total drift:                                0.000000      0.000000      0.000000


--------------------------------------------------------------------------------------------------------



  FREE ENERGIE OF THE ION-ELECTRON SYSTEM (eV)
  ---------------------------------------------------
  free  energy   TOTEN  =     -1429.04101981 eV

  energy  without entropy=    -1429.04101981  energy(sigma->0) =    -1429.04101981



--------------------------------------------------------------------------------------------------------


    POTLOK:  cpu time    1.4303: real time    1.4304


--------------------------------------------------------------------------------------------------------


 stress matrix after NEB project (eV)
      3.57735     -0.22710      0.00000
     -0.22710      3.57735      0.00000
      0.00000      0.00000      3.54536
  FORCES: max atom, RMS     0.065084    0.047121
  FORCE total and by dimension    0.298020    0.048860
  Stress total and by dimension    6.186083    3.577355
     LOOP+:  cpu time  357.5045: real time  358.0560
    4ORBIT:  cpu time    0.0000: real time    0.0000



 total charge     

# of ion       s       p       d       tot
------------------------------------------
    1        1.781   4.717   0.011   6.509
    2        1.781   4.717   0.011   6.509
    3        1.781   4.717   0.011   6.509
    4        1.781   4.717   0.011   6.509
    5        1.781   4.717   0.011   6.509
    6        1.781   4.717   0.011   6.509
    7        1.781   4.717   0.011   6.509
    8        1.781   4.717   0.011   6.509
    9        1.555   0.446   9.841  11.842
   10        1.555   0.446   9.841  11.842
   11        1.555   0.446   9.841  11.842
   12        1.555   0.446   9.841  11.842
   13        1.555   0.446   9.841  11.842
   14        1.555   0.446   9.841  11.842
   15        1.555   0.446   9.841  11.842
   16        1.555   0.446   9.841  11.842
   17        1.613   3.310   0.007   4.930
   18        1.613   3.310   0.007   4.930
   19        1.613   3.310   0.007   4.930
   20        1.613   3.310   0.007   4.930
   21        1.613   3.310   0.007   4.930
   22        1.613   3.310   0.007   4.930
   23        1.613   3.310   0.007   4.930
   24        1.613   3.310   0.007   4.930
   25        1.615   3.288   0.007   4.910
   26        1.615   3.288   0.007   4.910
   27        1.615   3.288   0.007   4.910
   28        1.615   3.288   0.007   4.910
   29        1.615   3.288   0.007   4.910
   30        1.615   3.288   0.007   4.910
   31        1.615   3.288   0.007   4.910
   32        1.615   3.288   0.007   4.910
   33        1.617   3.265   0.008   4.890
   34        1.617   3.265   0.008   4.890
   35        1.617   3.265   0.008   4.890
   36        1.617   3.265   0.008   4.890
   37        1.617   3.265   0.008   4.890
   38        1.617   3.265   0.008   4.890
   39        1.617   3.265   0.008   4.890
   40        1.617   3.265   0.008   4.890
--------------------------------------------------
tot         65.451 120.213  78.987 264.650


 total amount of memory used by VASP MPI-rank0    58985. kBytes
=======================================================================

   base      :      30000. kBytes
   nonlr-proj:       6613. kBytes
   fftplans  :       8423. kBytes
   grid      :       7465. kBytes
   one-center:         77. kBytes
   wavefun   :       6407. kBytes

  
  
 General timing and accounting informations for this job:
 ========================================================
  
                  Total CPU time used (sec):      376.410
                            User time (sec):      372.782
                          System time (sec):        3.628
                         Elapsed time (sec):      378.068
  
                   Maximum memory used (kb):      128336.
                   Average memory used (kb):           0.
  
                          Minor page faults:       257193
                          Major page faults:            0
                 Voluntary context switches:         1477
