PROCAR new format
# of k-points:    6         # of bands:  216         # of ions:   40

 k-point     1 :    0.00000000 0.00000000 0.00000000     weight = 0.12500000

band     1 # energy  -21.06274008 # occ.  2.00000000

ion      s      p      d    tot
    1  0.111  0.000  0.000  0.111
    2  0.111  0.000  0.000  0.111
    3  0.111  0.000  0.000  0.111
    4  0.111  0.000  0.000  0.111
    5  0.111  0.000  0.000  0.111
    6  0.111  0.000  0.000  0.111
    7  0.111  0.000  0.000  0.111
    8  0.111  0.000  0.000  0.111
    9  0.000  0.000  0.000  0.000
   10  0.000  0.000  0.000  0.000
   11  0.000  0.000  0.000  0.000
   12  0.000  0.000  0.000  0.000
   13  0.000  0.000  0.000  0.000
   14  0.000  0.000  0.000  0.000
   15  0.000  0.000  0.000  0.000
   16  0.000  0.000  0.000  0.000
   17  0.000  0.000  0.000  0.000
   18  0.000  0.000  0.000  0.000
   19  0.000  0.000  0.000  0.000
   20  0.000  0.000  0.000  0.000
   21  0.000  0.000  0.000  0.000
   22  0.000  0.000  0.000  0.000
   23  0.000  0.000  0.000  0.000
   24  0.000  0.000  0.000  0.000
   25  0.000  0.000  0.000  0.000
   26  0.000  0.000  0.000  0.000
   27  0.000  0.000  0.000  0.000
   28  0.000  0.000  0.000  0.000
   29  0.000  0.000  0.000  0.000
   30  0.000  0.000  0.000  0.000
   31  0.000  0.000  0.000  0.000
   32  0.000  0.000  0.000  0.000
   33  0.000  0.000  0.000  0.000
   34  0.000  0.000  0.000  0.000
   35  0.000  0.000  0.000  0.000
   36  0.000  0.000  0.000  0.000
   37  0.000  0.000  0.000  0.000
   38  0.000  0.000  0.000  0.000
   39  0.000  0.000  0.000  0.000
   40  0.000  0.000  0.000  0.000
tot    0.887  0.000  0.000  0.887

band     2 # energy  -21.06166169 # occ.  2.00000000

ion      s      p      d    tot
    1  0.111  0.000  0.000  0.111
    2  0.111  0.000  0.000  0.111
    3  0.111  0.000  0.000  0.111
    4  0.111  0.000  0.000  0.111
    5  0.111  0.000  0.000  0.111
    6  0.111  0.000  0.000  0.111
    7  0.111  0.000  0.000  0.111
    8  0.111  0.000  0.000  0.111
    9  0.000  0.000  0.000  0.000
   10  0.000  0.000  0.000  0.000
   11  0.000  0.000  0.000  0.000
   12  0.000  0.000  0.000  0.000
   13  0.000  0.000  0.000  0.000
   14  0.000  0.000  0.000  0.000
   15  0.000  0.000  0.000  0.000
   16  0.000  0.000  0.000  0.000
   17  0.000  0.000  0.000  0.000
   18  0.000  0.000  0.000  0.000
   19  0.000  0.000  0.000  0.000
   20  0.000  0.000  0.000  0.000
   21  0.000  0.000  0.000  0.000
   22  0.000  0.000  0.000  0.000
   23  0.000  0.000  0.000  0.000
   24  0.000  0.000  0.000  0.000
   25  0.000  0.000  0.000  0.000
   26  0.000  0.000  0.000  0.000
   27  0.000  0.000  0.000  0.000
   28  0.000  0.000  0.000  0.000
   29  0.000  0.000  0.000  0.000
   30  0.000  0.000  0.000  0.000
   31  0.000  0.000  0.000  0.000
   32  0.000  0.000  0.000  0.000
   33  0.000  0.000  0.000  0.000
   34  0.000  0.000  0.000  0.000
   35  0.000  0.000  0.000  0.000
   36  0.000  0.000  0.000  0.000
   37  0.000  0.000  0.000  0.000
   38  0.000  0.000  0.000  0.000
   39  0.000  0.000  0.000  0.000
   40  0.000  0.000  0.000  0.000
tot    0.887  0.000  0.000  0.887

band     3 # energy  -21.06165429 # occ.  2.00000000

ion      s      p      d    tot
    1  0.222  0.000  0.000  0.222
    2  0.222  0.000  0.000  0.222
    3  0.000  0.000  0.000  0.000
    4  0.000  0.000  0.000  0.000
    5  0.000  0.000  0.000  0.000
    6  0.000  0.000  0.000  0.000
    7  0.222  0.000  0.000  0.222
    8  0.222  0.000  0.000  0.222
    9  0.000  0.000  0.000  0.000
   10  0.000  0.000  0.000  0.000
   11  0.000  0.000  0.000  0.000
   12  0.000  0.000  0.000  0.000
   13  0.000  0.000  0.000  0.000
   14  0.000  0.000  0.000  0.000
   15  0.000  0.000  0.000  0.000
   16  0.000  0.000  0.000  0.000
   17  0.000  0.000  0.000  0.000
   18  0.000  0.000  0.000  0.000
   19  0.000  0.000  0.000  0.000
   20  0.000  0.000  0.000  0.000
   21  0.000  0.000  0.000  0.000
   22  0.000  0.000  0.000  0.000
   23  0.000  0.000  0.000  0.000
   24  0.000  0.000  0.000  0.000
   25  0.000  0.000  0.000  0.000
   26  0.000  0.000  0.000  0.000
   27  0.000  0.000  0.000  0.000
   28  0.000  0.000  0.000  0.000
   29  0.000  0.000  0.000  0.000
   30  0.000  0.000  0.000  0.000
   31  0.000  0.000  0.000  0.000
   32  0.000  0.000  0.000  0.000
   33  0.000  0.000  0.000  0.000
   34  0.000  0.000  0.000  0.000
   35  0.000  0.000  0.000  0.000
   36  0.000  0.000  0.000  0.000
   37  0.000  0.000  0.000  0.000
   38  0.000  0.000  0.000  0.000
   39  0.000  0.000  0.000  0.000
   40  0.000  0.000  0.000  0.000
tot    0.887  0.000  0.000  0.887

band     4 # energy  -21.06165429 # occ.  2.00000000

ion      s      p      d    tot
    1  0.000  0.000  0.000  0.000
    2  0.000  0.000  0.000  0.000
    3  0.222  0.000  0.000  0.222
    4  0.222  0.000  0.000  0.222
    5  0.222  0.000  0.000  0.222
    6  0.222  0.000  0.000  0.222
    7  0.000  0.000  0.000  0.000
    8  0.000  0.000  0.000  0.000
    9  0.000  0.000  0.000  0.000
   10  0.000  0.000  0.000  0.000
   11  0.000  0.000  0.000  0.000
   12  0.000  0.000  0.000  0.000
   13  0.000  0.000  0.000  0.000
   14  0.000  0.000  0.000  0.000
   15  0.000  0.000  0.000  0.000
   16  0.000  0.000  0.000  0.000
   17  0.000  0.000  0.000  0.000
   18  0.000  0.000  0.000  0.000
   19  0.000  0.000  0.000  0.000
   20  0.000  0.000  0.000  0.000
   21  0.000  0.000  0.000  0.000
   22  0.000  0.000  0.000  0.000
   23  0.000  0.000  0.000  0.000
   24  0.000  0.000  0.000  0.000
   25  0.000  0.000  0.000  0.000
   26  0.000  0.000  0.000  0.000
   27  0.000  0.000  0.000  0.000
   28  0.000  0.000  0.000  0.000
   29  0.000  0.000  0.000  0.000
   30  0.000  0.000  0.000  0.000
   31  0.000  0.000  0.000  0.000
   32  0.000  0.000  0.000  0.000
   33  0.000  0.000  0.000  0.000
   34  0.000  0.000  0.000  0.000
   35  0.000  0.000  0.000  0.000
   36  0.000  0.000  0.000  0.000
   37  0.000  0.000  0.000  0.000
   38  0.000  0.000  0.000  0.000
   39  0.000  0.000  0.000  0.000
   40  0.000  0.000  0.000  0.000
tot    0.887  0.000  0.000  0.887

band     5 # energy  -21.06072739 # occ.  2.00000000

ion      s      p      d    tot
    1  0.221  0.000  0.000  0.221
    2  0.221  0.000  0.000  0.221
    3  0.001  0.000  0.000  0.001
    4  0.001  0.000  0.000  0.001
    5  0.001  0.000  0.000  0.001
    6  0.001  0.000  0.000  0.001
    7  0.221  0.000  0.000  0.221
    8  0.221  0.000  0.000  0.221
    9  0.000  0.000  0.000  0.000
   10  0.000  0.000  0.000  0.000
   11  0.000  0.000  0.000  0.000
   12  0.000  0.000  0.000  0.000
   13  0.000  0.000  0.000  0.000
   14  0.000  0.000  0.000  0.000
   15  0.000  0.000  0.000  0.000
   16  0.000  0.000  0.000  0.000
   17  0.000  0.000  0.000  0.000
   18  0.000  0.000  0.000  0.000
   19  0.000  0.000  0.000  0.000
   20  0.000  0.000  0.000  0.000
   21  0.000  0.000  0.000  0.000
   22  0.000  0.000  0.000  0.000
   23  0.000  0.000  0.000  0.000
   24  0.000  0.000  0.000  0.000
   25  0.000  0.000  0.000  0.000
   26  0.000  0.000  0.000  0.000
   27  0.000  0.000  0.000  0.000
   28  0.000  0.000  0.000  0.000
   29  0.000  0.000  0.000  0.000
   30  0.000  0.000  0.000  0.000
   31  0.000  0.000  0.000  0.000
   32  0.000  0.000  0.000  0.000
   33  0.000  0.000  0.000  0.000
   34  0.000  0.000  0.000  0.000
   35  0.000  0.000  0.000  0.000
   36  0.000  0.000  0.000  0.000
   37  0.000  0.000  0.000  0.000
   38  0.000  0.000  0.000  0.000
   39  0.000  0.000  0.000  0.000
   40  0.000  0.000  0.000  0.000
tot    0.888  0.000  0.000  0.888

band     6 # energy  -21.06072739 # occ.  2.00000000

ion      s      p      d    tot
    1  0.001  0.000  0.000  0.001
    2  0.001  0.000  0.000  0.001
    3  0.221  0.000  0.000  0.221
    4  0.221  0.000  0.000  0.221
    5  0.221  0.000  0.000  0.221
    6  0.221  0.000  0.000  0.221
    7  0.001  0.000  0.000  0.001
    8  0.001  0.000  0.000  0.001
    9  0.000  0.000  0.000  0.000
   10  0.000  0.000  0.000  0.000
   11  0.000  0.000  0.000  0.000
   12  0.000  0.000  0.000  0.000
   13  0.000  0.000  0.000  0.000
   14  0.000  0.000  0.000  0.000
   15  0.000  0.000  0.000  0.000
   16  0.000  0.000  0.000  0.000
   17  0.000  0.000  0.000  0.000
   18  0.000  0.000  0.000  0.000
   19  0.000  0.000  0.000  0.000
   20  0.000  0.000  0.000  0.000
   21  0.000  0.000  0.000  0.000
   22  0.000  0.000  0.000  0.000
   23  0.000  0.000  0.000  0.000
   24  0.000  0.000  0.000  0.000
   25  0.000  0.000  0.000  0.000
   26  0.000  0.000  0.000  0.000
   27  0.000  0.000  0.000  0.000
   28  0.000  0.000  0.000  0.000
   29  0.000  0.000  0.000  0.000
   30  0.000  0.000  0.000  0.000
   31  0.000  0.000  0.000  0.000
   32  0.000  0.000  0.000  0.000
   33  0.000  0.000  0.000  0.000
   34  0.000  0.000  0.000  0.000
   35  0.000  0.000  0.000  0.000
   36  0.000  0.000  0.000  0.000
   37  0.000  0.000  0.000  0.000
   38  0.000  0.000  0.000  0.000
   39  0.000  0.000  0.000  0.000
   40  0.000  0.000  0.000  0.000
tot    0.888  0.000  0.000  0.888

band     7 # energy  -21.06072013 # occ.  2.00000000

ion      s      p      d    tot
    1  0.111  0.000  0.000  0.111
    2  0.111  0.000  0.000  0.111
    3  0.111  0.000  0.000  0.111
    4  0.111  0.000  0.000  0.111
    5  0.111  0.000  0.000  0.111
    6  0.111  0.000  0.000  0.111
    7  0.111  0.000  0.000  0.111
    8  0.111  0.000  0.000  0.111
    9  0.000  0.000  0.000  0.000
   10  0.000  0.000  0.000  0.000
   11  0.000  0.000  0.000  0.000
   12  0.000  0.000  0.000  0.000
   13  0.000  0.000  0.000  0.000
   14  0.000  0.000  0.000  0.000
   15  0.000  0.000  0.000  0.000
   16  0.000  0.000  0.000  0.000
   17  0.000  0.000  0.000  0.000
   18  0.000  0.000  0.000  0.000
   19  0.000  0.000  0.000  0.000
   20  0.000  0.000  0.000  0.000
   21  0.000  0.000  0.000  0.000
   22  0.000  0.000  0.000  0.000
   23  0.000  0.000  0.000  0.000
   24  0.000  0.000  0.000  0.000
   25  0.000  0.000  0.000  0.000
   26  0.000  0.000  0.000  0.000
   27  0.000  0.000  0.000  0.000
   28  0.000  0.000  0.000  0.000
   29  0.000  0.000  0.000  0.000
   30  0.000  0.000  0.000  0.000
   31  0.000  0.000  0.000  0.000
   32  0.000  0.000  0.000  0.000
   33  0.000  0.000  0.000  0.000
   34  0.000  0.000  0.000  0.000
   35  0.000  0.000  0.000  0.000
   36  0.000  0.000  0.000  0.000
   37  0.000  0.000  0.000  0.000
   38  0.000  0.000  0.000  0.000
   39  0.000  0.000  0.000  0.000
   40  0.000  0.000  0.000  0.000
tot    0.888  0.000  0.000  0.888

band     8 # energy  -21.05942626 # occ.  2.00000000

ion      s      p      d    tot
    1  0.111  0.000  0.000  0.111
    2  0.111  0.000  0.000  0.111
    3  0.111  0.000  0.000  0.111
    4  0.111  0.000  0.000  0.111
    5  0.111  0.000  0.000  0.111
    6  0.111  0.000  0.000  0.111
    7  0.111  0.000  0.000  0.111
    8  0.111  0.000  0.000  0.111
    9  0.000  0.000  0.000  0.000
   10  0.000  0.000  0.000  0.000
   11  0.000  0.000  0.000  0.000
   12  0.000  0.000  0.000  0.000
   13  0.000  0.000  0.000  0.000
   14  0.000  0.000  0.000  0.000
   15  0.000  0.000  0.000  0.000
   16  0.000  0.000  0.000  0.000
   17  0.000  0.000  0.000  0.000
   18  0.000  0.000  0.000  0.000
   19  0.000  0.000  0.000  0.000
   20  0.000  0.000  0.000  0.000
   21  0.000  0.000  0.000  0.000
   22  0.000  0.000  0.000  0.000
   23  0.000  0.000  0.000  0.000
   24  0.000  0.000  0.000  0.000
   25  0.000  0.000  0.000  0.000
   26  0.000  0.000  0.000  0.000
   27  0.000  0.000  0.000  0.000
   28  0.000  0.000  0.000  0.000
   29  0.000  0.000  0.000  0.000
   30  0.000  0.000  0.000  0.000
   31  0.000  0.000  0.000  0.000
   32  0.000  0.000  0.000  0.000
   33  0.000  0.000  0.000  0.000
   34  0.000  0.000  0.000  0.000
   35  0.000  0.000  0.000  0.000
   36  0.000  0.000  0.000  0.000
   37  0.000  0.000  0.000  0.000
   38  0.000  0.000  0.000  0.000
   39  0.000  0.000  0.000  0.000
   40  0.000  0.000  0.000  0.000
tot    0.888  0.000  0.000  0.888

band     9 # energy  -16.29965812 # occ.  2.00000000

ion      s      p      d    tot
    1  0.000  0.000  0.000  0.000
    2  0.000  0.000  0.000  0.000
    3  0.000  0.000  0.000  0.000
    4  0.000  0.000  0.000  0.000
    5  0.000  0.000  0.000  0.000
    6  0.000  0.000  0.000  0.000
    7  0.000  0.000  0.000  0.000
    8  0.000  0.000  0.000  0.000
    9  0.000  0.000  0.113  0.113
   10  0.000  0.000  0.113  0.113
   11  0.000  0.000  0.113  0.113
   12  0.000  0.000  0.113  0.113
   13  0.000  0.000  0.113  0.113
   14  0.000  0.000  0.113  0.113
   15  0.000  0.000  0.113  0.113
   16  0.000  0.000  0.113  0.113
   17  0.003  0.000  0.000  0.003
   18  0.003  0.000  0.000  0.003
   19  0.003  0.000  0.000  0.003
   20  0.003  0.000  0.000  0.003
   21  0.003  0.000  0.000  0.003
   22  0.003  0.000  0.000  0.003
   23  0.003  0.000  0.000  0.003
   24  0.003  0.000  0.000  0.003
   25  0.000  0.000  0.000  0.000
   26  0.000  0.000  0.000  0.000
   27  0.000  0.000  0.000  0.000
   28  0.000  0.000  0.000  0.000
   29  0.000  0.000  0.000  0.000
   30  0.000  0.000  0.000  0.000
   31  0.000  0.000  0.000  0.000
   32  0.000  0.000  0.000  0.000
   33  0.003  0.000  0.000  0.003
   34  0.003  0.000  0.000  0.003
   35  0.003  0.000  0.000  0.003
   36  0.003  0.000  0.000  0.003
   37  0.003  0.000  0.000  0.003
   38  0.003  0.000  0.000  0.003
   39  0.003  0.000  0.000  0.003
   40  0.003  0.000  0.000  0.003
tot    0.052  0.000  0.904  0.956

band    10 # energy  -16.29962773 # occ.  2.00000000

ion      s      p      d    tot
    1  0.000  0.000  0.000  0.000
    2  0.000  0.000  0.000  0.000
    3  0.000  0.000  0.000  0.000
    4  0.000  0.000  0.000  0.000
    5  0.000  0.000  0.000  0.000
    6  0.000  0.000  0.000  0.000
    7  0.000  0.000  0.000  0.000
    8  0.000  0.000  0.000  0.000
    9  0.000  0.000  0.113  0.113
   10  0.000  0.000  0.113  0.113
   11  0.000  0.000  0.113  0.113
   12  0.000  0.000  0.113  0.113
   13  0.000  0.000  0.113  0.113
   14  0.000  0.000  0.113  0.113
   15  0.000  0.000  0.113  0.113
   16  0.000  0.000  0.113  0.113
   17  0.003  0.000  0.000  0.003
   18  0.003  0.000  0.000  0.003
   19  0.003  0.000  0.000  0.003
   20  0.003  0.000  0.000  0.003
   21  0.003  0.000  0.000  0.003
   22  0.003  0.000  0.000  0.003
   23  0.003  0.000  0.000  0.003
   24  0.003  0.000  0.000  0.003
   25  0.000  0.000  0.000  0.000
   26  0.000  0.000  0.000  0.000
   27  0.000  0.000  0.000  0.000
   28  0.000  0.000  0.000  0.000
   29  0.000  0.000  0.000  0.000
   30  0.000  0.000  0.000  0.000
   31  0.000  0.000  0.000  0.000
   32  0.000  0.000  0.000  0.000
   33  0.003  0.000  0.000  0.003
   34  0.003  0.000  0.000  0.003
   35  0.003  0.000  0.000  0.003
   36  0.003  0.000  0.000  0.003
   37  0.003  0.000  0.000  0.003
   38  0.003  0.000  0.000  0.003
   39  0.003  0.000  0.000  0.003
   40  0.003  0.000  0.000  0.003
tot    0.052  0.000  0.904  0.956

band    11 # energy  -16.29930530 # occ.  2.00000000

ion      s      p      d    tot
    1  0.000  0.000  0.000  0.000
    2  0.000  0.000  0.000  0.000
    3  0.000  0.000  0.000  0.000
    4  0.000  0.000  0.000  0.000
    5  0.000  0.000  0.000  0.000
    6  0.000  0.000  0.000  0.000
    7  0.000  0.000  0.000  0.000
    8  0.000  0.000  0.000  0.000
    9  0.000  0.000  0.156  0.156
   10  0.000  0.000  0.156  0.156
   11  0.000  0.000  0.070  0.070
   12  0.000  0.000  0.070  0.070
   13  0.000  0.000  0.070  0.070
   14  0.000  0.000  0.070  0.070
   15  0.000  0.000  0.156  0.156
   16  0.000  0.000  0.156  0.156
   17  0.002  0.000  0.000  0.002
   18  0.002  0.000  0.000  0.002
   19  0.002  0.000  0.000  0.002
   20  0.002  0.000  0.000  0.002
   21  0.002  0.000  0.000  0.002
   22  0.002  0.000  0.000  0.002
   23  0.002  0.000  0.000  0.002
   24  0.002  0.000  0.000  0.002
   25  0.006  0.000  0.000  0.006
   26  0.006  0.000  0.000  0.006
   27  0.001  0.000  0.000  0.001
   28  0.001  0.000  0.000  0.001
   29  0.001  0.000  0.000  0.001
   30  0.001  0.000  0.000  0.001
   31  0.006  0.000  0.000  0.006
   32  0.006  0.000  0.000  0.006
   33  0.001  0.000  0.000  0.001
   34  0.001  0.000  0.000  0.001
   35  0.001  0.000  0.000  0.001
   36  0.001  0.000  0.000  0.001
   37  0.001  0.000  0.000  0.001
   38  0.001  0.000  0.000  0.001
   39  0.001  0.000  0.000  0.001
   40  0.001  0.000  0.000  0.001
tot    0.052  0.000  0.904  0.956

band    12 # energy  -16.29930530 # occ.  2.00000000

ion      s      p      d    tot
    1  0.000  0.000  0.000  0.000
    2  0.000  0.000  0.000  0.000
    3  0.000  0.000  0.000  0.000
    4  0.000  0.000  0.000  0.000
    5  0.000  0.000  0.000  0.000
    6  0.000  0.000  0.000  0.000
    7  0.000  0.000  0.000  0.000
    8  0.000  0.000  0.000  0.000
    9  0.000  0.000  0.070  0.070
   10  0.000  0.000  0.070  0.070
   11  0.000  0.000  0.156  0.156
   12  0.000  0.000  0.156  0.156
   13  0.000  0.000  0.156  0.156
   14  0.000  0.000  0.156  0.156
   15  0.000  0.000  0.070  0.070
   16  0.000  0.000  0.070  0.070
   17  0.001  0.000  0.000  0.001
   18  0.001  0.000  0.000  0.001
   19  0.001  0.000  0.000  0.001
   20  0.001  0.000  0.000  0.001
   21  0.001  0.000  0.000  0.001
   22  0.001  0.000  0.000  0.001
   23  0.001  0.000  0.000  0.001
   24  0.001  0.000  0.000  0.001
   25  0.001  0.000  0.000  0.001
   26  0.001  0.000  0.000  0.001
   27  0.006  0.000  0.000  0.006
   28  0.006  0.000  0.000  0.006
   29  0.006  0.000  0.000  0.006
   30  0.006  0.000  0.000  0.006
   31  0.001  0.000  0.000  0.001
   32  0.001  0.000  0.000  0.001
   33  0.002  0.000  0.000  0.002
   34  0.002  0.000  0.000  0.002
   35  0.002  0.000  0.000  0.002
   36  0.002  0.000  0.000  0.002
   37  0.002  0.000  0.000  0.002
   38  0.002  0.000  0.000  0.002
   39  0.002  0.000  0.000  0.002
   40  0.002  0.000  0.000  0.002
tot    0.052  0.000  0.904  0.956

band    13 # energy  -16.29924782 # occ.  2.00000000

ion      s      p      d    tot
    1  0.000  0.000  0.000  0.000
    2  0.000  0.000  0.000  0.000
    3  0.000  0.000  0.000  0.000
    4  0.000  0.000  0.000  0.000
    5  0.000  0.000  0.000  0.000
    6  0.000  0.000  0.000  0.000
    7  0.000  0.000  0.000  0.000
    8  0.000  0.000  0.000  0.000
    9  0.000  0.000  0.113  0.113
   10  0.000  0.000  0.113  0.113
   11  0.000  0.000  0.113  0.113
   12  0.000  0.000  0.113  0.113
   13  0.000  0.000  0.113  0.113
   14  0.000  0.000  0.113  0.113
   15  0.000  0.000  0.113  0.113
   16  0.000  0.000  0.113  0.113
   17  0.001  0.000  0.000  0.001
   18  0.001  0.000  0.000  0.001
   19  0.001  0.000  0.000  0.001
   20  0.001  0.000  0.000  0.001
   21  0.001  0.000  0.000  0.001
   22  0.001  0.000  0.000  0.001
   23  0.001  0.000  0.000  0.001
   24  0.001  0.000  0.000  0.001
   25  0.004  0.000  0.000  0.004
   26  0.004  0.000  0.000  0.004
   27  0.004  0.000  0.000  0.004
   28  0.004  0.000  0.000  0.004
   29  0.004  0.000  0.000  0.004
   30  0.004  0.000  0.000  0.004
   31  0.004  0.000  0.000  0.004
   32  0.004  0.000  0.000  0.004
   33  0.001  0.000  0.000  0.001
   34  0.001  0.000  0.000  0.001
   35  0.001  0.000  0.000  0.001
   36  0.001  0.000  0.000  0.001
   37  0.001  0.000  0.000  0.001
   38  0.001  0.000  0.000  0.001
   39  0.001  0.000  0.000  0.001
   40  0.001  0.000  0.000  0.001
tot    0.052  0.000  0.904  0.956

band    14 # energy  -16.26409545 # occ.  2.00000000

ion      s      p      d    tot
    1  0.000  0.000  0.000  0.000
    2  0.000  0.000  0.000  0.000
    3  0.000  0.000  0.000  0.000
    4  0.000  0.000  0.000  0.000
    5  0.000  0.000  0.000  0.000
    6  0.000  0.000  0.000  0.000
    7  0.000  0.000  0.000  0.000
    8  0.000  0.000  0.000  0.000
    9  0.000  0.000  0.091  0.091
   10  0.000  0.000  0.091  0.091
   11  0.000  0.000  0.139  0.139
   12  0.000  0.000  0.139  0.139
   13  0.000  0.000  0.139  0.139
   14  0.000  0.000  0.139  0.139
   15  0.000  0.000  0.091  0.091
   16  0.000  0.000  0.091  0.091
   17  0.004  0.000  0.000  0.004
   18  0.004  0.000  0.000  0.004
   19  0.004  0.000  0.000  0.004
   20  0.004  0.000  0.000  0.004
   21  0.004  0.000  0.000  0.004
   22  0.004  0.000  0.000  0.004
   23  0.004  0.000  0.000  0.004
   24  0.004  0.000  0.000  0.004
   25  0.000  0.000  0.000  0.000
   26  0.000  0.000  0.000  0.000
   27  0.000  0.000  0.000  0.000
   28  0.000  0.000  0.000  0.000
   29  0.000  0.000  0.000  0.000
   30  0.000  0.000  0.000  0.000
   31  0.000  0.000  0.000  0.000
   32  0.000  0.000  0.000  0.000
   33  0.001  0.000  0.000  0.001
   34  0.001  0.000  0.000  0.001
   35  0.001  0.000  0.000  0.001
   36  0.001  0.000  0.000  0.001
   37  0.001  0.000  0.000  0.001
   38  0.001  0.000  0.000  0.001
   39  0.001  0.000  0.000  0.001
   40  0.001  0.000  0.000  0.001
tot    0.040  0.001  0.919  0.960

band    15 # energy  -16.26409545 # occ.  2.00000000

ion      s      p      d    tot
    1  0.000  0.000  0.000  0.000
    2  0.000  0.000  0.000  0.000
    3  0.000  0.000  0.000  0.000
    4  0.000  0.000  0.000  0.000
    5  0.000  0.000  0.000  0.000
    6  0.000  0.000  0.000  0.000
    7  0.000  0.000  0.000  0.000
    8  0.000  0.000  0.000  0.000
    9  0.000  0.000  0.139  0.139
   10  0.000  0.000  0.139  0.139
   11  0.000  0.000  0.091  0.091
   12  0.000  0.000  0.091  0.091
   13  0.000  0.000  0.091  0.091
   14  0.000  0.000  0.091  0.091
   15  0.000  0.000  0.139  0.139
   16  0.000  0.000  0.139  0.139
   17  0.001  0.000  0.000  0.001
   18  0.001  0.000  0.000  0.001
   19  0.001  0.000  0.000  0.001
   20  0.001  0.000  0.000  0.001
   21  0.001  0.000  0.000  0.001
   22  0.001  0.000  0.000  0.001
   23  0.001  0.000  0.000  0.001
   24  0.001  0.000  0.000  0.001
   25  0.000  0.000  0.000  0.000
   26  0.000  0.000  0.000  0.000
   27  0.000  0.000  0.000  0.000
   28  0.000  0.000  0.000  0.000
   29  0.000  0.000  0.000  0.000
   30  0.000  0.000  0.000  0.000
   31  0.000  0.000  0.000  0.000
   32  0.000  0.000  0.000  0.000
   33  0.004  0.000  0.000  0.004
   34  0.004  0.000  0.000  0.004
   35  0.004  0.000  0.000  0.004
   36  0.004  0.000  0.000  0.004
   37  0.004  0.000  0.000  0.004
   38  0.004  0.000  0.000  0.004
   39  0.004  0.000  0.000  0.004
   40  0.004  0.000  0.000  0.004
tot    0.040  0.001  0.919  0.960

band    16 # energy  -16.26366729 # occ.  2.00000000

ion      s      p      d    tot
    1  0.000  0.000  0.000  0.000
    2  0.000  0.000  0.000  0.000
    3  0.000  0.000  0.000  0.000
    4  0.000  0.000  0.000  0.000
    5  0.000  0.000  0.000  0.000
    6  0.000  0.000  0.000  0.000
    7  0.000  0.000  0.000  0.000
    8  0.000  0.000  0.000  0.000
    9  0.000  0.000  0.115  0.115
   10  0.000  0.000  0.115  0.115
   11  0.000  0.000  0.115  0.115
   12  0.000  0.000  0.115  0.115
   13  0.000  0.000  0.115  0.115
   14  0.000  0.000  0.115  0.115
   15  0.000  0.000  0.115  0.115
   16  0.000  0.000  0.115  0.115
   17  0.000  0.000  0.000  0.000
   18  0.000  0.000  0.000  0.000
   19  0.000  0.000  0.000  0.000
   20  0.000  0.000  0.000  0.000
   21  0.000  0.000  0.000  0.000
   22  0.000  0.000  0.000  0.000
   23  0.000  0.000  0.000  0.000
   24  0.000  0.000  0.000  0.000
   25  0.005  0.000  0.000  0.005
   26  0.005  0.000  0.000  0.005
   27  0.005  0.000  0.000  0.005
   28  0.005  0.000  0.000  0.005
   29  0.005  0.000  0.000  0.005
   30  0.005  0.000  0.000  0.005
   31  0.005  0.000  0.000  0.005
   32  0.005  0.000  0.000  0.005
   33  0.000  0.000  0.000  0.000
   34  0.000  0.000  0.000  0.000
   35  0.000  0.000  0.000  0.000
   36  0.000  0.000  0.000  0.000
   37  0.000  0.000  0.000  0.000
   38  0.000  0.000  0.000  0.000
   39  0.000  0.000  0.000  0.000
   40  0.000  0.000  0.000  0.000
tot    0.040  0.001  0.919  0.960

band    17 # energy  -16.22353430 # occ.  2.00000000

ion      s      p      d    tot
    1  0.000  0.000  0.000  0.000
    2  0.000  0.000  0.000  0.000
    3  0.000  0.000  0.000  0.000
    4  0.000  0.000  0.000  0.000
    5  0.000  0.000  0.000  0.000
    6  0.000  0.000  0.000  0.000
    7  0.000  0.000  0.000  0.000
    8  0.000  0.000  0.000  0.000
    9  0.000  0.000  0.113  0.113
   10  0.000  0.000  0.113  0.113
   11  0.000  0.000  0.122  0.122
   12  0.000  0.000  0.122  0.122
   13  0.000  0.000  0.122  0.122
   14  0.000  0.000  0.122  0.122
   15  0.000  0.000  0.113  0.113
   16  0.000  0.000  0.113  0.113
   17  0.000  0.000  0.000  0.000
   18  0.000  0.000  0.000  0.000
   19  0.000  0.000  0.000  0.000
   20  0.000  0.000  0.000  0.000
   21  0.000  0.000  0.000  0.000
   22  0.000  0.000  0.000  0.000
   23  0.000  0.000  0.000  0.000
   24  0.000  0.000  0.000  0.000
   25  0.002  0.000  0.000  0.002
   26  0.002  0.000  0.000  0.002
   27  0.001  0.000  0.000  0.001
   28  0.001  0.000  0.000  0.001
   29  0.001  0.000  0.000  0.001
   30  0.001  0.000  0.000  0.001
   31  0.002  0.000  0.000  0.002
   32  0.002  0.000  0.000  0.002
   33  0.001  0.000  0.000  0.001
   34  0.001  0.000  0.000  0.001
   35  0.001  0.000  0.000  0.001
   36  0.001  0.000  0.000  0.001
   37  0.001  0.000  0.000  0.001
   38  0.001  0.000  0.000  0.001
   39  0.001  0.000  0.000  0.001
   40  0.001  0.000  0.000  0.001
tot    0.024  0.002  0.940  0.965

band    18 # energy  -16.22353430 # occ.  2.00000000

ion      s      p      d    tot
    1  0.000  0.000  0.000  0.000
    2  0.000  0.000  0.000  0.000
    3  0.000  0.000  0.000  0.000
    4  0.000  0.000  0.000  0.000
    5  0.000  0.000  0.000  0.000
    6  0.000  0.000  0.000  0.000
    7  0.000  0.000  0.000  0.000
    8  0.000  0.000  0.000  0.000
    9  0.000  0.000  0.122  0.122
   10  0.000  0.000  0.122  0.122
   11  0.000  0.000  0.113  0.113
   12  0.000  0.000  0.113  0.113
   13  0.000  0.000  0.113  0.113
   14  0.000  0.000  0.113  0.113
   15  0.000  0.000  0.122  0.122
   16  0.000  0.000  0.122  0.122
   17  0.001  0.000  0.000  0.001
   18  0.001  0.000  0.000  0.001
   19  0.001  0.000  0.000  0.001
   20  0.001  0.000  0.000  0.001
   21  0.001  0.000  0.000  0.001
   22  0.001  0.000  0.000  0.001
   23  0.001  0.000  0.000  0.001
   24  0.001  0.000  0.000  0.001
   25  0.001  0.000  0.000  0.001
   26  0.001  0.000  0.000  0.001
   27  0.002  0.000  0.000  0.002
   28  0.002  0.000  0.000  0.002
   29  0.002  0.000  0.000  0.002
   30  0.002  0.000  0.000  0.002
   31  0.001  0.000  0.000  0.001
   32  0.001  0.000  0.000  0.001
   33  0.000  0.000  0.000  0.000
   34  0.000  0.000  0.000  0.000
   35  0.000  0.000  0.000  0.000
   36  0.000  0.000  0.000  0.000
   37  0.000  0.000  0.000  0.000
   38  0.000  0.000  0.000  0.000
   39  0.000  0.000  0.000  0.000
   40  0.000  0.000  0.000  0.000
tot    0.024  0.002  0.940  0.965

band    19 # energy  -16.22350096 # occ.  2.00000000

ion      s      p      d    tot
    1  0.000  0.000  0.000  0.000
    2  0.000  0.000  0.000  0.000
    3  0.000  0.000  0.000  0.000
    4  0.000  0.000  0.000  0.000
    5  0.000  0.000  0.000  0.000
    6  0.000  0.000  0.000  0.000
    7  0.000  0.000  0.000  0.000
    8  0.000  0.000  0.000  0.000
    9  0.000  0.000  0.117  0.117
   10  0.000  0.000  0.117  0.117
   11  0.000  0.000  0.117  0.117
   12  0.000  0.000  0.117  0.117
   13  0.000  0.000  0.117  0.117
   14  0.000  0.000  0.117  0.117
   15  0.000  0.000  0.117  0.117
   16  0.000  0.000  0.117  0.117
   17  0.001  0.000  0.000  0.001
   18  0.001  0.000  0.000  0.001
   19  0.001  0.000  0.000  0.001
   20  0.001  0.000  0.000  0.001
   21  0.001  0.000  0.000  0.001
   22  0.001  0.000  0.000  0.001
   23  0.001  0.000  0.000  0.001
   24  0.001  0.000  0.000  0.001
   25  0.000  0.000  0.000  0.000
   26  0.000  0.000  0.000  0.000
   27  0.000  0.000  0.000  0.000
   28  0.000  0.000  0.000  0.000
   29  0.000  0.000  0.000  0.000
   30  0.000  0.000  0.000  0.000
   31  0.000  0.000  0.000  0.000
   32  0.000  0.000  0.000  0.000
   33  0.001  0.000  0.000  0.001
   34  0.001  0.000  0.000  0.001
   35  0.001  0.000  0.000  0.001
   36  0.001  0.000  0.000  0.001
   37  0.001  0.000  0.000  0.001
   38  0.001  0.000  0.000  0.001
   39  0.001  0.000  0.000  0.001
   40  0.001  0.000  0.000  0.001
tot    0.024  0.002  0.940  0.965

band    20 # energy  -16.17595445 # occ.  2.00000000

ion      s      p      d    tot
    1  0.000  0.000  0.000  0.000
    2  0.000  0.000  0.000  0.000
    3  0.000  0.000  0.000  0.000
    4  0.000  0.000  0.000  0.000
    5  0.000  0.000  0.000  0.000
    6  0.000  0.000  0.000  0.000
    7  0.000  0.000  0.000  0.000
    8  0.000  0.000  0.000  0.000
    9  0.000  0.000  0.121  0.121
   10  0.000  0.000  0.121  0.121
   11  0.000  0.000  0.121  0.121
   12  0.000  0.000  0.121  0.121
   13  0.000  0.000  0.121  0.121
   14  0.000  0.000  0.121  0.121
   15  0.000  0.000  0.121  0.121
   16  0.000  0.000  0.121  0.121
   17  0.000  0.000  0.000  0.000
   18  0.000  0.000  0.000  0.000
   19  0.000  0.000  0.000  0.000
   20  0.000  0.000  0.000  0.000
   21  0.000  0.000  0.000  0.000
   22  0.000  0.000  0.000  0.000
   23  0.000  0.000  0.000  0.000
   24  0.000  0.000  0.000  0.000
   25  0.000  0.000  0.000  0.000
   26  0.000  0.000  0.000  0.000
   27  0.000  0.000  0.000  0.000
   28  0.000  0.000  0.000  0.000
   29  0.000  0.000  0.000  0.000
   30  0.000  0.000  0.000  0.000
   31  0.000  0.000  0.000  0.000
   32  0.000  0.000  0.000  0.000
   33  0.000  0.000  0.000  0.000
   34  0.000  0.000  0.000  0.000
   35  0.000  0.000  0.000  0.000
   36  0.000  0.000  0.000  0.000
   37  0.000  0.000  0.000  0.000
   38  0.000  0.000  0.000  0.000
   39  0.000  0.000  0.000  0.000
   40  0.000  0.000  0.000  0.000
tot    0.000  0.003  0.970  0.973

band    21 # energy  -16.17582044 # occ.  2.00000000

ion      s      p      d    tot
    1  0.000  0.000  0.000  0.000
    2  0.000  0.000  0.000  0.000
    3  0.000  0.000  0.000  0.000