  20  20   1   0
  0.4281351E+02  0.8841019E-09  0.1141869E-08  0.8481880E-09  0.5000000E-15
   1.0000000000000000E-004
  CAR 
 CsPbBr3 cubic bulk                      
      8.20785289    -22.62025135  301     -0.09004517      1.00000000
    -22.620  0.0000E+00  0.0000E+00
    -22.517  0.0000E+00  0.0000E+00
    -22.415  0.0000E+00  0.0000E+00
    -22.312  0.0000E+00  0.0000E+00
    -22.209  0.0000E+00  0.0000E+00
    -22.106  0.0000E+00  0.0000E+00
    -22.004  0.0000E+00  0.0000E+00
    -21.901  0.0000E+00  0.0000E+00
    -21.798  0.0000E+00  0.0000E+00
    -21.695  0.0000E+00  0.0000E+00
    -21.593  0.0000E+00  0.0000E+00
    -21.490  0.0000E+00  0.0000E+00
    -21.387  0.0000E+00  0.0000E+00
    -21.284  0.0000E+00  0.0000E+00
    -21.182  0.7785E+02  0.8000E+01
    -21.079  0.0000E+00  0.8000E+01
    -20.976  0.0000E+00  0.8000E+01
    -20.873  0.0000E+00  0.8000E+01
    -20.771  0.0000E+00  0.8000E+01
    -20.668  0.0000E+00  0.8000E+01
    -20.565  0.0000E+00  0.8000E+01
    -20.462  0.0000E+00  0.8000E+01
    -20.360  0.0000E+00  0.8000E+01
    -20.257  0.0000E+00  0.8000E+01
    -20.154  0.0000E+00  0.8000E+01
    -20.051  0.0000E+00  0.8000E+01
    -19.948  0.0000E+00  0.8000E+01
    -19.846  0.0000E+00  0.8000E+01
    -19.743  0.0000E+00  0.8000E+01
    -19.640  0.0000E+00  0.8000E+01
    -19.537  0.0000E+00  0.8000E+01
    -19.435  0.0000E+00  0.8000E+01
    -19.332  0.0000E+00  0.8000E+01
    -19.229  0.0000E+00  0.8000E+01
    -19.126  0.0000E+00  0.8000E+01
    -19.024  0.0000E+00  0.8000E+01
    -18.921  0.0000E+00  0.8000E+01
    -18.818  0.0000E+00  0.8000E+01
    -18.715  0.0000E+00  0.8000E+01
    -18.613  0.0000E+00  0.8000E+01
    -18.510  0.0000E+00  0.8000E+01
    -18.407  0.0000E+00  0.8000E+01
    -18.304  0.0000E+00  0.8000E+01
    -18.202  0.0000E+00  0.8000E+01
    -18.099  0.0000E+00  0.8000E+01
    -17.996  0.0000E+00  0.8000E+01
    -17.893  0.0000E+00  0.8000E+01
    -17.791  0.0000E+00  0.8000E+01
    -17.688  0.0000E+00  0.8000E+01
    -17.585  0.0000E+00  0.8000E+01
    -17.482  0.0000E+00  0.8000E+01
    -17.379  0.0000E+00  0.8000E+01
    -17.277  0.0000E+00  0.8000E+01
    -17.174  0.0000E+00  0.8000E+01
    -17.071  0.0000E+00  0.8000E+01
    -16.968  0.7582E+01  0.8779E+01
    -16.866  0.1368E+03  0.2406E+02
    -16.763  0.1557E+03  0.4800E+02
    -16.660  0.0000E+00  0.4800E+02
    -16.557  0.0000E+00  0.4800E+02
    -16.455  0.0000E+00  0.4800E+02
    -16.352  0.0000E+00  0.4800E+02
    -16.249  0.0000E+00  0.4800E+02
    -16.146  0.0000E+00  0.4800E+02
    -16.044  0.0000E+00  0.4800E+02
    -15.941  0.0000E+00  0.4800E+02
    -15.838  0.0000E+00  0.4800E+02
    -15.735  0.0000E+00  0.4800E+02
    -15.633  0.0000E+00  0.4800E+02
    -15.530  0.0000E+00  0.4800E+02
    -15.427  0.0000E+00  0.4800E+02
    -15.324  0.0000E+00  0.4800E+02
    -15.222  0.0000E+00  0.4800E+02
    -15.119  0.0000E+00  0.4800E+02
    -15.016  0.0000E+00  0.4800E+02
    -14.913  0.0000E+00  0.4800E+02
    -14.810  0.0000E+00  0.4800E+02
    -14.708  0.0000E+00  0.4800E+02
    -14.605  0.4734E-07  0.4800E+02
    -14.502  0.1225E+02  0.4926E+02
    -14.399  0.5510E+02  0.5577E+02
    -14.297  0.1193E+01  0.5601E+02
    -14.194  0.1261E+02  0.5741E+02
    -14.091  0.6895E+02  0.6709E+02
    -13.988  0.3133E+02  0.7200E+02
    -13.886  0.0000E+00  0.7200E+02
    -13.783  0.0000E+00  0.7200E+02
    -13.680  0.0000E+00  0.7200E+02
    -13.577  0.0000E+00  0.7200E+02
    -13.475  0.0000E+00  0.7200E+02
    -13.372  0.0000E+00  0.7200E+02
    -13.269  0.0000E+00  0.7200E+02
    -13.166  0.0000E+00  0.7200E+02
    -13.064  0.0000E+00  0.7200E+02
    -12.961  0.0000E+00  0.7200E+02
    -12.858  0.0000E+00  0.7200E+02
    -12.755  0.0000E+00  0.7200E+02
    -12.652  0.0000E+00  0.7200E+02
    -12.550  0.0000E+00  0.7200E+02
    -12.447  0.0000E+00  0.7200E+02
    -12.344  0.0000E+00  0.7200E+02
    -12.241  0.0000E+00  0.7200E+02
    -12.139  0.0000E+00  0.7200E+02
    -12.036  0.0000E+00  0.7200E+02
    -11.933  0.0000E+00  0.7200E+02
    -11.830  0.0000E+00  0.7200E+02
    -11.728  0.0000E+00  0.7200E+02
    -11.625  0.0000E+00  0.7200E+02
    -11.522  0.0000E+00  0.7200E+02
    -11.419  0.0000E+00  0.7200E+02
    -11.317  0.0000E+00  0.7200E+02
    -11.214  0.0000E+00  0.7200E+02
    -11.111  0.0000E+00  0.7200E+02
    -11.008  0.0000E+00  0.7200E+02
    -10.906  0.0000E+00  0.7200E+02
    -10.803  0.0000E+00  0.7200E+02
    -10.700  0.0000E+00  0.7200E+02
    -10.597  0.0000E+00  0.7200E+02
    -10.495  0.0000E+00  0.7200E+02
    -10.392  0.0000E+00  0.7200E+02
    -10.289  0.0000E+00  0.7200E+02
    -10.186  0.0000E+00  0.7200E+02
    -10.083  0.0000E+00  0.7200E+02
     -9.981  0.0000E+00  0.7200E+02
     -9.878  0.0000E+00  0.7200E+02
     -9.775  0.0000E+00  0.7200E+02
     -9.672  0.0000E+00  0.7200E+02
     -9.570  0.0000E+00  0.7200E+02
     -9.467  0.0000E+00  0.7200E+02
     -9.364  0.0000E+00  0.7200E+02
     -9.261  0.0000E+00  0.7200E+02
     -9.159  0.0000E+00  0.7200E+02
     -9.056  0.0000E+00  0.7200E+02
     -8.953  0.0000E+00  0.7200E+02
     -8.850  0.0000E+00  0.7200E+02
     -8.748  0.0000E+00  0.7200E+02
     -8.645  0.0000E+00  0.7200E+02
     -8.542  0.0000E+00  0.7200E+02
     -8.439  0.7546E+00  0.7208E+02
     -8.337  0.7874E-12  0.7211E+02
     -8.234  0.4325E+01  0.7256E+02
     -8.131  0.6488E+01  0.7322E+02
     -8.028  0.3426E+01  0.7357E+02
     -7.926  0.1040E+02  0.7562E+02
     -7.823  0.1081E+01  0.7600E+02
     -7.720  0.1321E+02  0.7736E+02
     -7.617  0.3766E+02  0.8131E+02
     -7.514  0.1415E+03  0.1028E+03
     -7.412  0.2163E+01  0.1030E+03
     -7.309  0.4431E+01  0.1035E+03
     -7.206  0.0000E+00  0.1039E+03
     -7.103  0.1328E-09  0.1039E+03
     -7.001  0.1081E+01  0.1040E+03
     -6.898  0.0000E+00  0.1040E+03
     -6.795  0.0000E+00  0.1040E+03
     -6.692  0.0000E+00  0.1040E+03
     -6.590  0.0000E+00  0.1040E+03
     -6.487  0.0000E+00  0.1040E+03
     -6.384  0.0000E+00  0.1040E+03
     -6.281  0.0000E+00  0.1040E+03
     -6.179  0.0000E+00  0.1040E+03
     -6.076  0.0000E+00  0.1040E+03
     -5.973  0.0000E+00  0.1040E+03
     -5.870  0.0000E+00  0.1040E+03
     -5.768  0.0000E+00  0.1040E+03
     -5.665  0.0000E+00  0.1040E+03
     -5.562  0.0000E+00  0.1040E+03
     -5.459  0.0000E+00  0.1040E+03
     -5.357  0.0000E+00  0.1040E+03
     -5.254  0.0000E+00  0.1040E+03
     -5.151  0.0000E+00  0.1040E+03
     -5.048  0.0000E+00  0.1040E+03
     -4.945  0.0000E+00  0.1040E+03
     -4.843  0.0000E+00  0.1040E+03
     -4.740  0.0000E+00  0.1040E+03
     -4.637  0.0000E+00  0.1040E+03
     -4.534  0.0000E+00  0.1040E+03
     -4.432  0.0000E+00  0.1040E+03
     -4.329  0.0000E+00  0.1040E+03
     -4.226  0.0000E+00  0.1040E+03
     -4.123  0.0000E+00  0.1040E+03
     -4.021  0.0000E+00  0.1040E+03
     -3.918  0.0000E+00  0.1040E+03
     -3.815  0.0000E+00  0.1040E+03
     -3.712  0.1933E-07  0.1040E+03
     -3.610  0.1186E+02  0.1052E+03
     -3.507  0.1081E+01  0.1060E+03
     -3.404  0.0000E+00  0.1060E+03
     -3.301  0.2651E+01  0.1063E+03
     -3.199  0.1240E+02  0.1079E+03
     -3.096  0.2550E+01  0.1084E+03
     -2.993  0.1253E+02  0.1104E+03
     -2.890  0.1512E+02  0.1129E+03
     -2.788  0.2169E+02  0.1153E+03
     -2.685  0.1277E+02  0.1173E+03
     -2.582  0.4325E+01  0.1180E+03
     -2.479  0.2435E+01  0.1183E+03
     -2.376  0.9588E+01  0.1199E+03
     -2.274  0.1276E+02  0.1224E+03
     -2.171  0.3699E+02  0.1264E+03
     -2.068  0.7542E+01  0.1279E+03
     -1.965  0.1698E+02  0.1296E+03
     -1.863  0.3039E+02  0.1339E+03
     -1.760  0.4623E+02  0.1399E+03
     -1.657  0.3650E+02  0.1444E+03
     -1.554  0.5675E+02  0.1509E+03
     -1.452  0.6319E+02  0.1590E+03
     -1.349  0.5407E+02  0.1656E+03
     -1.246  0.9974E+01  0.1680E+03
     -1.143  0.2466E+02  0.1712E+03
     -1.041  0.9007E+01  0.1724E+03
     -0.938  0.1727E+02  0.1742E+03
     -0.835  0.1986E+00  0.1742E+03
     -0.732  0.1081E+01  0.1748E+03
     -0.630  0.1375E+01  0.1749E+03
     -0.527  0.4325E+01  0.1759E+03
     -0.424  0.0000E+00  0.1759E+03
     -0.321  0.0000E+00  0.1759E+03
     -0.218  0.8516E-10  0.1759E+03
     -0.116  0.1081E+01  0.1760E+03
     -0.013  0.0000E+00  0.1760E+03
      0.090  0.0000E+00  0.1760E+03
      0.193  0.0000E+00  0.1760E+03
      0.295  0.0000E+00  0.1760E+03
      0.398  0.0000E+00  0.1760E+03
      0.501  0.0000E+00  0.1760E+03
      0.604  0.0000E+00  0.1760E+03
      0.706  0.0000E+00  0.1760E+03
      0.809  0.0000E+00  0.1760E+03
      0.912  0.0000E+00  0.1760E+03
      1.015  0.0000E+00  0.1760E+03
      1.117  0.0000E+00  0.1760E+03
      1.220  0.0000E+00  0.1760E+03
      1.323  0.0000E+00  0.1760E+03
      1.426  0.0000E+00  0.1760E+03
      1.528  0.0000E+00  0.1760E+03
      1.631  0.0000E+00  0.1760E+03
      1.734  0.0000E+00  0.1760E+03
      1.837  0.0000E+00  0.1760E+03
      1.939  0.0000E+00  0.1760E+03
      2.042  0.5683E-06  0.1760E+03
      2.145  0.1081E+01  0.1761E+03
      2.248  0.3704E+00  0.1761E+03
      2.351  0.6019E-02  0.1764E+03
      2.453  0.5761E+01  0.1771E+03
      2.556  0.9513E-01  0.1772E+03
      2.659  0.1082E+01  0.1782E+03
      2.762  0.4333E+01  0.1788E+03
      2.864  0.8034E+01  0.1798E+03
      2.967  0.8684E+01  0.1808E+03
      3.070  0.1081E+02  0.1823E+03
      3.173  0.8957E+01  0.1833E+03
      3.275  0.4216E+01  0.1841E+03
      3.378  0.6588E+01  0.1855E+03
      3.481  0.4320E+01  0.1860E+03
      3.584  0.0000E+00  0.1860E+03
      3.686  0.0000E+00  0.1860E+03
      3.789  0.0000E+00  0.1860E+03
      3.892  0.0000E+00  0.1860E+03
      3.995  0.1200E-15  0.1860E+03
      4.097  0.6503E+01  0.1867E+03
      4.200  0.1307E+02  0.1885E+03
      4.303  0.2543E+01  0.1892E+03
      4.406  0.1463E+02  0.1917E+03
      4.508  0.1935E+02  0.1950E+03
      4.611  0.2214E+01  0.1952E+03
      4.714  0.9574E-06  0.1954E+03
      4.817  0.4827E+01  0.1959E+03
      4.920  0.3402E+00  0.1960E+03
      5.022  0.1081E+01  0.1970E+03
      5.125  0.6360E+01  0.1977E+03
      5.228  0.4325E+01  0.1986E+03
      5.331  0.1936E+01  0.1988E+03
      5.433  0.1081E+01  0.1992E+03
      5.536  0.1932E+01  0.1994E+03
      5.639  0.8507E+01  0.2007E+03
      5.742  0.6425E+01  0.2017E+03
      5.844  0.1090E+02  0.2035E+03
      5.947  0.1674E+02  0.2056E+03
      6.050  0.2294E+02  0.2082E+03
      6.153  0.9598E+01  0.2105E+03
      6.255  0.1256E+02  0.2126E+03
      6.358  0.2653E+02  0.2155E+03
      6.461  0.3137E+02  0.2189E+03
      6.564  0.2449E+02  0.2221E+03
      6.666  0.9717E+01  0.2231E+03
      6.769  0.4161E+01  0.2235E+03
      6.872  0.4325E+01  0.2240E+03
      6.975  0.0000E+00  0.2240E+03
      7.077  0.0000E+00  0.2240E+03
      7.180  0.0000E+00  0.2240E+03
      7.283  0.0000E+00  0.2240E+03
      7.386  0.0000E+00  0.2240E+03
      7.489  0.0000E+00  0.2240E+03
      7.591  0.0000E+00  0.2240E+03
      7.694  0.0000E+00  0.2240E+03
      7.797  0.0000E+00  0.2240E+03
      7.900  0.0000E+00  0.2240E+03
      8.002  0.0000E+00  0.2240E+03
      8.105  0.0000E+00  0.2240E+03
      8.208  0.0000E+00  0.2240E+03
      8.20785289    -22.62025135  301     -0.09004517      1.00000000
    -22.620  0.0000E+00  0.0000E+00  0.0000E+00
    -22.517  0.0000E+00  0.0000E+00  0.0000E+00
    -22.415  0.0000E+00  0.0000E+00  0.0000E+00
    -22.312  0.0000E+00  0.0000E+00  0.0000E+00
    -22.209  0.0000E+00  0.0000E+00  0.0000E+00
    -22.106  0.0000E+00  0.0000E+00  0.0000E+00
    -22.004  0.0000E+00  0.0000E+00  0.0000E+00
    -21.901  0.0000E+00  0.0000E+00  0.0000E+00
    -21.798  0.0000E+00  0.0000E+00  0.0000E+00
    -21.695  0.0000E+00  0.0000E+00  0.0000E+00
    -21.593  0.0000E+00  0.0000E+00  0.0000E+00
    -21.490  0.0000E+00  0.0000E+00  0.0000E+00
    -21.387  0.0000E+00  0.0000E+00  0.0000E+00
    -21.284  0.0000E+00  0.0000E+00  0.0000E+00
    -21.182  0.1727E+02  0.2600E-04  0.1243E-05
    -21.079  0.0000E+00  0.0000E+00  0.0000E+00
    -20.976  0.0000E+00  0.0000E+00  0.0000E+00
    -20.873  0.0000E+00  0.0000E+00  0.0000E+00
    -20.771  0.0000E+00  0.0000E+00  0.0000E+00
    -20.668  0.0000E+00  0.0000E+00  0.0000E+00
    -20.565  0.0000E+00  0.0000E+00  0.0000E+00
    -20.462  0.0000E+00  0.0000E+00  0.0000E+00
    -20.360  0.0000E+00  0.0000E+00  0.0000E+00
    -20.257  0.0000E+00  0.0000E+00  0.0000E+00
    -20.154  0.0000E+00  0.0000E+00  0.0000E+00
    -20.051  0.0000E+00  0.0000E+00  0.0000E+00
    -19.948  0.0000E+00  0.0000E+00  0.0000E+00
    -19.846  0.0000E+00  0.0000E+00  0.0000E+00
    -19.743  0.0000E+00  0.0000E+00  0.0000E+00
    -19.640  0.0000E+00  0.0000E+00  0.0000E+00
    -19.537  0.0000E+00  0.0000E+00  0.0000E+00
    -19.435  0.0000E+00  0.0000E+00  0.0000E+00
    -19.332  0.0000E+00  0.0000E+00  0.0000E+00
    -19.229  0.0000E+00  0.0000E+00  0.0000E+00
    -19.126  0.0000E+00  0.0000E+00  0.0000E+00
    -19.024  0.0000E+00  0.0000E+00  0.0000E+00
    -18.921  0.0000E+00  0.0000E+00  0.0000E+00
    -18.818  0.0000E+00  0.0000E+00  0.0000E+00
    -18.715  0.0000E+00  0.0000E+00  0.0000E+00
    -18.613  0.0000E+00  0.0000E+00  0.0000E+00
    -18.510  0.0000E+00  0.0000E+00  0.0000E+00
    -18.407  0.0000E+00  0.0000E+00  0.0000E+00
    -18.304  0.0000E+00  0.0000E+00  0.0000E+00
    -18.202  0.0000E+00  0.0000E+00  0.0000E+00
    -18.099  0.0000E+00  0.0000E+00  0.0000E+00
    -17.996  0.0000E+00  0.0000E+00  0.0000E+00
    -17.893  0.0000E+00  0.0000E+00  0.0000E+00
    -17.791  0.0000E+00  0.0000E+00  0.0000E+00
    -17.688  0.0000E+00  0.0000E+00  0.0000E+00
    -17.585  0.0000E+00  0.0000E+00  0.0000E+00
    -17.482  0.0000E+00  0.0000E+00  0.0000E+00
    -17.379  0.0000E+00  0.0000E+00  0.0000E+00
    -17.277  0.0000E+00  0.0000E+00  0.0000E+00
    -17.174  0.0000E+00  0.0000E+00  0.0000E+00
    -17.071  0.0000E+00  0.0000E+00  0.0000E+00
    -16.968  0.1488E-04  0.7159E-05  0.1133E-05
    -16.866  0.4476E-04  0.4362E-04  0.7620E-05
    -16.763  0.2426E-04  0.1305E-04  0.1607E-05
    -16.660  0.0000E+00  0.0000E+00  0.0000E+00
    -16.557  0.0000E+00  0.0000E+00  0.0000E+00
    -16.455  0.0000E+00  0.0000E+00  0.0000E+00
    -16.352  0.0000E+00  0.0000E+00  0.0000E+00
    -16.249  0.0000E+00  0.0000E+00  0.0000E+00
    -16.146  0.0000E+00  0.0000E+00  0.0000E+00
    -16.044  0.0000E+00  0.0000E+00  0.0000E+00
    -15.941  0.0000E+00  0.0000E+00  0.0000E+00
    -15.838  0.0000E+00  0.0000E+00  0.0000E+00
    -15.735  0.0000E+00  0.0000E+00  0.0000E+00
    -15.633  0.0000E+00  0.0000E+00  0.0000E+00
    -15.530  0.0000E+00  0.0000E+00  0.0000E+00
    -15.427  0.0000E+00  0.0000E+00  0.0000E+00
    -15.324  0.0000E+00  0.0000E+00  0.0000E+00
    -15.222  0.0000E+00  0.0000E+00  0.0000E+00
    -15.119  0.0000E+00  0.0000E+00  0.0000E+00
    -15.016  0.0000E+00  0.0000E+00  0.0000E+00
    -14.913  0.0000E+00  0.0000E+00  0.0000E+00
    -14.810  0.0000E+00  0.0000E+00  0.0000E+00
    -14.708  0.0000E+00  0.0000E+00  0.0000E+00
    -14.605  0.1294E-10  0.7530E-12  0.3598E-13
    -14.502  0.2074E-02  0.1003E-02  0.2467E-04
    -14.399  0.2090E-02  0.6402E-02  0.3839E-03
    -14.297  0.1220E-05  0.1104E-03  0.1307E-04
    -14.194  0.2259E-04  0.1478E-02  0.9749E-04
    -14.091  0.1494E-02  0.5048E-02  0.4643E-03
    -13.988  0.5287E-03  0.1538E-02  0.2117E-03
    -13.886  0.0000E+00  0.0000E+00  0.0000E+00
    -13.783  0.0000E+00  0.0000E+00  0.0000E+00
    -13.680  0.0000E+00  0.0000E+00  0.0000E+00
    -13.577  0.0000E+00  0.0000E+00  0.0000E+00
    -13.475  0.0000E+00  0.0000E+00  0.0000E+00
    -13.372  0.0000E+00  0.0000E+00  0.0000E+00
    -13.269  0.0000E+00  0.0000E+00  0.0000E+00
    -13.166  0.0000E+00  0.0000E+00  0.0000E+00
    -13.064  0.0000E+00  0.0000E+00  0.0000E+00
    -12.961  0.0000E+00  0.0000E+00  0.0000E+00
    -12.858  0.0000E+00  0.0000E+00  0.0000E+00
    -12.755  0.0000E+00  0.0000E+00  0.0000E+00
    -12.652  0.0000E+00  0.0000E+00  0.0000E+00
    -12.550  0.0000E+00  0.0000E+00  0.0000E+00
    -12.447  0.0000E+00  0.0000E+00  0.0000E+00
    -12.344  0.0000E+00  0.0000E+00  0.0000E+00
    -12.241  0.0000E+00  0.0000E+00  0.0000E+00
    -12.139  0.0000E+00  0.0000E+00  0.0000E+00
    -12.036  0.0000E+00  0.0000E+00  0.0000E+00
    -11.933  0.0000E+00  0.0000E+00  0.0000E+00
    -11.830  0.0000E+00  0.0000E+00  0.0000E+00
    -11.728  0.0000E+00  0.0000E+00  0.0000E+00
    -11.625  0.0000E+00  0.0000E+00  0.0000E+00
    -11.522  0.0000E+00  0.0000E+00  0.0000E+00
    -11.419  0.0000E+00  0.0000E+00  0.0000E+00
    -11.317  0.0000E+00  0.0000E+00  0.0000E+00
    -11.214  0.0000E+00  0.0000E+00  0.0000E+00
    -11.111  0.0000E+00  0.0000E+00  0.0000E+00
    -11.008  0.0000E+00  0.0000E+00  0.0000E+00
    -10.906  0.0000E+00  0.0000E+00  0.0000E+00
    -10.803  0.0000E+00  0.0000E+00  0.0000E+00
    -10.700  0.0000E+00  0.0000E+00  0.0000E+00
    -10.597  0.0000E+00  0.0000E+00  0.0000E+00
    -10.495  0.0000E+00  0.0000E+00  0.0000E+00
    -10.392  0.0000E+00  0.0000E+00  0.0000E+00
    -10.289  0.0000E+00  0.0000E+00  0.0000E+00
    -10.186  0.0000E+00  0.0000E+00  0.0000E+00
    -10.083  0.0000E+00  0.0000E+00  0.0000E+00
     -9.981  0.0000E+00  0.0000E+00  0.0000E+00
     -9.878  0.0000E+00  0.0000E+00  0.0000E+00
     -9.775  0.0000E+00  0.0000E+00  0.0000E+00
     -9.672  0.0000E+00  0.0000E+00  0.0000E+00
     -9.570  0.0000E+00  0.0000E+00  0.0000E+00
     -9.467  0.0000E+00  0.0000E+00  0.0000E+00
     -9.364  0.0000E+00  0.0000E+00  0.0000E+00
     -9.261  0.0000E+00  0.0000E+00  0.0000E+00
     -9.159  0.0000E+00  0.0000E+00  0.0000E+00
     -9.056  0.0000E+00  0.0000E+00  0.0000E+00
     -8.953  0.0000E+00  0.0000E+00  0.0000E+00
     -8.850  0.0000E+00  0.0000E+00  0.0000E+00
     -8.748  0.0000E+00  0.0000E+00  0.0000E+00
     -8.645  0.0000E+00  0.0000E+00  0.0000E+00
     -8.542  0.0000E+00  0.0000E+00  0.0000E+00
     -8.439  0.8432E-19  0.3950E-05  0.2389E-05
     -8.337  0.1571E-30  0.2472E-15  0.1732E-17
     -8.234  0.2055E-17  0.1077E-02  0.1160E-04
     -8.131  0.1078E-06  0.4377E-02  0.1708E-04
     -8.028  0.2214E-05  0.9734E-02  0.9063E-05
     -7.926  0.4998E-05  0.2003E-01  0.2937E-04
     -7.823  0.2045E-06  0.1694E-01  0.2673E-05
     -7.720  0.1744E-04  0.3286E+00  0.3678E-04
     -7.617  0.4299E-04  0.5406E+01  0.3291E-04
     -7.514  0.3982E-04  0.2629E+02  0.4925E-04
     -7.412  0.9132E-05  0.1373E-01  0.4940E-05
     -7.309  0.1259E-04  0.4071E-01  0.2372E-04
     -7.206  0.0000E+00  0.0000E+00  0.0000E+00
     -7.103  0.9703E-15  0.2044E-12  0.9907E-16
     -7.001  0.7902E-05  0.1665E-02  0.8068E-06
     -6.898  0.0000E+00  0.0000E+00  0.0000E+00
     -6.795  0.0000E+00  0.0000E+00  0.0000E+00
     -6.692  0.0000E+00  0.0000E+00  0.0000E+00
     -6.590  0.0000E+00  0.0000E+00  0.0000E+00
     -6.487  0.0000E+00  0.0000E+00  0.0000E+00
     -6.384  0.0000E+00  0.0000E+00  0.0000E+00
     -6.281  0.0000E+00  0.0000E+00  0.0000E+00
     -6.179  0.0000E+00  0.0000E+00  0.0000E+00
     -6.076  0.0000E+00  0.0000E+00  0.0000E+00
     -5.973  0.0000E+00  0.0000E+00  0.0000E+00
     -5.870  0.0000E+00  0.0000E+00  0.0000E+00
     -5.768  0.0000E+00  0.0000E+00  0.0000E+00
     -5.665  0.0000E+00  0.0000E+00  0.0000E+00
     -5.562  0.0000E+00  0.0000E+00  0.0000E+00
     -5.459  0.0000E+00  0.0000E+00  0.0000E+00
     -5.357  0.0000E+00  0.0000E+00  0.0000E+00
     -5.254  0.0000E+00  0.0000E+00  0.0000E+00
     -5.151  0.0000E+00  0.0000E+00  0.0000E+00
     -5.048  0.0000E+00  0.0000E+00  0.0000E+00
     -4.945  0.0000E+00  0.0000E+00  0.0000E+00
     -4.843  0.0000E+00  0.0000E+00  0.0000E+00
     -4.740  0.0000E+00  0.0000E+00  0.0000E+00
     -4.637  0.0000E+00  0.0000E+00  0.0000E+00
     -4.534  0.0000E+00  0.0000E+00  0.0000E+00
     -4.432  0.0000E+00  0.0000E+00  0.0000E+00
     -4.329  0.0000E+00  0.0000E+00  0.0000E+00
     -4.226  0.0000E+00  0.0000E+00  0.0000E+00
     -4.123  0.0000E+00  0.0000E+00  0.0000E+00
     -4.021  0.0000E+00  0.0000E+00  0.0000E+00
     -3.918  0.0000E+00  0.0000E+00  0.0000E+00
     -3.815  0.0000E+00  0.0000E+00  0.0000E+00
     -3.712  0.3283E-24  0.2802E-10  0.4008E-12
     -3.610  0.2265E-15  0.8304E-02  0.6619E-03
     -3.507  0.6318E-17  0.6504E-04  0.5544E-04
     -3.404  0.0000E+00  0.0000E+00  0.0000E+00
     -3.301  0.5225E-04  0.4831E-02  0.1660E-03
     -3.199  0.1754E-03  0.1091E-01  0.1305E-02
     -3.096  0.7940E-05  0.8169E-03  0.1938E-03
     -2.993  0.2133E-03  0.1769E-01  0.9364E-03
     -2.890  0.4209E-03  0.1052E-01  0.1351E-02
     -2.788  0.8094E-03  0.1946E-01  0.1772E-02
     -2.685  0.5035E-03  0.3684E-02  0.1067E-02
     -2.582  0.4396E-03  0.3742E-02  0.6704E-03
     -2.479  0.5027E-03  0.3363E-02  0.2744E-03
     -2.376  0.3551E-02  0.8188E-02  0.1030E-02
     -2.274  0.9746E-02  0.1934E-01  0.2304E-02
     -2.171  0.1929E-01  0.5261E-01  0.4561E-02
     -2.068  0.2787E-03  0.2888E-01  0.1326E-02
     -1.965  0.3062E-02  0.5308E-01  0.3764E-02
     -1.863  0.1779E-02  0.8946E-01  0.8770E-02
     -1.760  0.3261E-02  0.7069E-01  0.1293E-01
     -1.657  0.4088E-02  0.4599E-01  0.1176E-01
     -1.554  0.6330E-02  0.7005E-01  0.1862E-01
     -1.452  0.4531E-02  0.9357E-01  0.1609E-01
     -1.349  0.1094E-02  0.5360E-01  0.1041E-01
     -1.246  0.1102E-03  0.3676E-02  0.3344E-02
     -1.143  0.8772E-03  0.2364E-01  0.4793E-02
     -1.041  0.1936E-03  0.2747E-02  0.9955E-03
     -0.938  0.2723E-03  0.3583E-02  0.1048E-02
     -0.835  0.9672E-16  0.8440E-04  0.2143E-05
     -0.732  0.1246E-05  0.3688E-03  0.1520E-03
     -0.630  0.1513E-05  0.1715E-03  0.1057E-03
     -0.527  0.7798E-15  0.1896E-04  0.5759E-03
     -0.424  0.0000E+00  0.0000E+00  0.0000E+00
     -0.321  0.0000E+00  0.0000E+00  0.0000E+00
     -0.218  0.4297E-27  0.7567E-15  0.3206E-14
     -0.116  0.5456E-17  0.9608E-05  0.4071E-04
     -0.013  0.0000E+00  0.0000E+00  0.0000E+00
      0.090  0.0000E+00  0.0000E+00  0.0000E+00
      0.193  0.0000E+00  0.0000E+00  0.0000E+00
      0.295  0.0000E+00  0.0000E+00  0.0000E+00
      0.398  0.0000E+00  0.0000E+00  0.0000E+00
      0.501  0.0000E+00  0.0000E+00  0.0000E+00
      0.604  0.0000E+00  0.0000E+00  0.0000E+00
      0.706  0.0000E+00  0.0000E+00  0.0000E+00
      0.809  0.0000E+00  0.0000E+00  0.0000E+00
      0.912  0.0000E+00  0.0000E+00  0.0000E+00
      1.015  0.0000E+00  0.0000E+00  0.0000E+00
      1.117  0.0000E+00  0.0000E+00  0.0000E+00
      1.220  0.0000E+00  0.0000E+00  0.0000E+00
      1.323  0.0000E+00  0.0000E+00  0.0000E+00
      1.426  0.0000E+00  0.0000E+00  0.0000E+00
      1.528  0.0000E+00  0.0000E+00  0.0000E+00
      1.631  0.0000E+00  0.0000E+00  0.0000E+00
      1.734  0.0000E+00  0.0000E+00  0.0000E+00
      1.837  0.0000E+00  0.0000E+00  0.0000E+00
      1.939  0.0000E+00  0.0000E+00  0.0000E+00
      2.042  0.2655E-21  0.8158E-11  0.2829E-09
      2.145  0.5051E-15  0.1552E-04  0.5383E-03
      2.248  0.6530E-06  0.1054E-04  0.2022E-03
      2.351  0.1153E-05  0.1131E-05  0.1895E-05
      2.453  0.1916E-04  0.1326E-02  0.1336E-02
      2.556  0.3516E-05  0.3616E-04  0.1981E-04
      2.659  0.9776E-04  0.3083E-03  0.6612E-03
      2.762  0.4232E-03  0.1397E-02  0.1196E-02
      2.864  0.2120E-03  0.9605E-03  0.4442E-02
      2.967  0.4184E-03  0.2077E-02  0.3359E-02
      3.070  0.9261E-03  0.2563E-02  0.3904E-02
      3.173  0.4285E-04  0.8043E-03  0.2948E-02
      3.275  0.2386E-04  0.9222E-03  0.7302E-03
      3.378  0.4121E-03  0.1545E-02  0.1292E-02
      3.481  0.1704E-05  0.1374E-02  0.5355E-03
      3.584  0.0000E+00  0.0000E+00  0.0000E+00
      3.686  0.0000E+00  0.0000E+00  0.0000E+00
      3.789  0.0000E+00  0.0000E+00  0.0000E+00
      3.892  0.0000E+00  0.0000E+00  0.0000E+00
      3.995  0.2153E-20  0.1189E-19  0.2046E-18
      4.097  0.4030E-04  0.4172E-03  0.7365E-02
      4.200  0.5154E-03  0.3256E-02  0.1007E-01
      4.303  0.7528E-07  0.2780E-03  0.1147E-02
      4.406  0.4308E-02  0.5474E-02  0.6733E-02
      4.508  0.1426E-01  0.7474E-02  0.9765E-02
      4.611  0.2847E-02  0.1486E-02  0.2923E-03
      4.714  0.8944E-23  0.2255E-10  0.6556E-09
      4.817  0.6894E-12  0.1827E-03  0.3132E-02
      4.920  0.4519E-05  0.1371E-04  0.2188E-03
      5.022  0.4593E-16  0.1269E-04  0.1803E-03
      5.125  0.1788E-01  0.3633E-02  0.5730E-02
      5.228  0.8937E-02  0.3113E-02  0.1577E-02
      5.331  0.7693E-02  0.1787E-02  0.4978E-02
      5.433  0.2421E-05  0.9120E-05  0.6684E-04
      5.536  0.6202E-02  0.1502E-02  0.3589E-01
      5.639  0.3589E-01  0.1059E-01  0.7285E-01
      5.742  0.1493E-01  0.6194E-02  0.2455E-01
      5.844  0.6232E-02  0.6493E-02  0.1128E+00
      5.947  0.4190E-01  0.2312E-01  0.3432E+00
      6.050  0.5049E-01  0.3833E-01  0.4655E+00
      6.153  0.2005E-01  0.1395E-01  0.2554E+00
      6.255  0.3516E-01  0.2707E-01  0.2758E+00
      6.358  0.2261E-01  0.6634E-01  0.7962E+00
      6.461  0.7751E-01  0.4787E-01  0.7777E+00
      6.564  0.4139E-01  0.2659E-01  0.6271E+00
      6.666  0.8257E-02  0.1291E-01  0.3712E+00
      6.769  0.2056E-01  0.3773E-02  0.6277E-01
      6.872  0.1927E-01  0.7891E-02  0.8651E-01
      6.975  0.0000E+00  0.0000E+00  0.0000E+00
      7.077  0.0000E+00  0.0000E+00  0.0000E+00
      7.180  0.0000E+00  0.0000E+00  0.0000E+00
      7.283  0.0000E+00  0.0000E+00  0.0000E+00
      7.386  0.0000E+00  0.0000E+00  0.0000E+00
      7.489  0.0000E+00  0.0000E+00  0.0000E+00
      7.591  0.0000E+00  0.0000E+00  0.0000E+00
      7.694  0.0000E+00  0.0000E+00  0.0000E+00
      7.797  0.0000E+00  0.0000E+00  0.0000E+00
      7.900  0.0000E+00  0.0000E+00  0.0000E+00
      8.002  0.0000E+00  0.0000E+00  0.0000E+00
      8.105  0.0000E+00  0.0000E+00  0.0000E+00
      8.208  0.0000E+00  0.0000E+00  0.0000E+00
      8.20785289    -22.62025135  301     -0.09004517      1.00000000
    -22.620  0.0000E+00  0.0000E+00  0.0000E+00
    -22.517  0.0000E+00  0.0000E+00  0.0000E+00
    -22.415  0.0000E+00  0.0000E+00  0.0000E+00
    -22.312  0.0000E+00  0.0000E+00  0.0000E+00
    -22.209  0.0000E+00  0.0000E+00  0.0000E+00
    -22.106  0.0000E+00  0.0000E+00  0.0000E+00
    -22.004  0.0000E+00  0.0000E+00  0.0000E+00
    -21.901  0.0000E+00  0.0000E+00  0.0000E+00
    -21.798  0.0000E+00  0.0000E+00  0.0000E+00
    -21.695  0.0000E+00  0.0000E+00  0.0000E+00
    -21.593  0.0000E+00  0.0000E+00  0.0000E+00
    -21.490  0.0000E+00  0.0000E+00  0.0000E+00
    -21.387  0.0000E+00  0.0000E+00  0.0000E+00
    -21.284  0.0000E+00  0.0000E+00  0.0000E+00
    -21.182  0.1727E+02  0.2600E-04  0.1261E-05
    -21.079  0.0000E+00  0.0000E+00  0.0000E+00
    -20.976  0.0000E+00  0.0000E+00  0.0000E+00
    -20.873  0.0000E+00  0.0000E+00  0.0000E+00
    -20.771  0.0000E+00  0.0000E+00  0.0000E+00
    -20.668  0.0000E+00  0.0000E+00  0.0000E+00
    -20.565  0.0000E+00  0.0000E+00  0.0000E+00
    -20.462  0.0000E+00  0.0000E+00  0.0000E+00
    -20.360  0.0000E+00  0.0000E+00  0.0000E+00
    -20.257  0.0000E+00  0.0000E+00  0.0000E+00
    -20.154  0.0000E+00  0.0000E+00  0.0000E+00
    -20.051  0.0000E+00  0.0000E+00  0.0000E+00
    -19.948  0.0000E+00  0.0000E+00  0.0000E+00
    -19.846  0.0000E+00  0.0000E+00  0.0000E+00
    -19.743  0.0000E+00  0.0000E+00  0.0000E+00
    -19.640  0.0000E+00  0.0000E+00  0.0000E+00
    -19.537  0.0000E+00  0.0000E+00  0.0000E+00
    -19.435  0.0000E+00  0.0000E+00  0.0000E+00
    -19.332  0.0000E+00  0.0000E+00  0.0000E+00
    -19.229  0.0000E+00  0.0000E+00  0.0000E+00
    -19.126  0.0000E+00  0.0000E+00  0.0000E+00
    -19.024  0.0000E+00  0.0000E+00  0.0000E+00
    -18.921  0.0000E+00  0.0000E+00  0.0000E+00
    -18.818  0.0000E+00  0.0000E+00  0.0000E+00
    -18.715  0.0000E+00  0.0000E+00  0.0000E+00
    -18.613  0.0000E+00  0.0000E+00  0.0000E+00
    -18.510  0.0000E+00  0.0000E+00  0.0000E+00
    -18.407  0.0000E+00  0.0000E+00  0.0000E+00
    -18.304  0.0000E+00  0.0000E+00  0.0000E+00
    -18.202  0.0000E+00  0.0000E+00  0.0000E+00
    -18.099  0.0000E+00  0.0000E+00  0.0000E+00
    -17.996  0.0000E+00  0.0000E+00  0.0000E+00
    -17.893  0.0000E+00  0.0000E+00  0.0000E+00
    -17.791  0.0000E+00  0.0000E+00  0.0000E+00
    -17.688  0.0000E+00  0.0000E+00  0.0000E+00
    -17.585  0.0000E+00  0.0000E+00  0.0000E+00
    -17.482  0.0000E+00  0.0000E+00  0.0000E+00
    -17.379  0.0000E+00  0.0000E+00  0.0000E+00
    -17.277  0.0000E+00  0.0000E+00  0.0000E+00
    -17.174  0.0000E+00  0.0000E+00  0.0000E+00
    -17.071  0.0000E+00  0.0000E+00  0.0000E+00
    -16.968  0.1251E-04  0.7206E-05  0.1216E-05
    -16.866  0.4458E-04  0.4356E-04  0.7632E-05
    -16.763  0.2408E-04  0.1309E-04  0.1610E-05
    -16.660  0.0000E+00  0.0000E+00  0.0000E+00
    -16.557  0.0000E+00  0.0000E+00  0.0000E+00
    -16.455  0.0000E+00  0.0000E+00  0.0000E+00
    -16.352  0.0000E+00  0.0000E+00  0.0000E+00
    -16.249  0.0000E+00  0.0000E+00  0.0000E+00
    -16.146  0.0000E+00  0.0000E+00  0.0000E+00
    -16.044  0.0000E+00  0.0000E+00  0.0000E+00
    -15.941  0.0000E+00  0.0000E+00  0.0000E+00
    -15.838  0.0000E+00  0.0000E+00  0.0000E+00
    -15.735  0.0000E+00  0.0000E+00  0.0000E+00
    -15.633  0.0000E+00  0.0000E+00  0.0000E+00
    -15.530  0.0000E+00  0.0000E+00  0.0000E+00
    -15.427  0.0000E+00  0.0000E+00  0.0000E+00
    -15.324  0.0000E+00  0.0000E+00  0.0000E+00
    -15.222  0.0000E+00  0.0000E+00  0.0000E+00
    -15.119  0.0000E+00  0.0000E+00  0.0000E+00
    -15.016  0.0000E+00  0.0000E+00  0.0000E+00
    -14.913  0.0000E+00  0.0000E+00  0.0000E+00
    -14.810  0.0000E+00  0.0000E+00  0.0000E+00
    -14.708  0.0000E+00  0.0000E+00  0.0000E+00
    -14.605  0.1294E-10  0.7530E-12  0.3598E-13
    -14.502  0.2061E-02  0.9413E-03  0.2892E-04
    -14.399  0.2169E-02  0.6578E-02  0.3709E-03
    -14.297  0.1220E-05  0.1104E-03  0.1307E-04
    -14.194  0.1541E-04  0.1691E-02  0.7777E-04
    -14.091  0.1766E-02  0.5156E-02  0.5298E-03
    -13.988  0.4972E-03  0.1594E-02  0.2064E-03
    -13.886  0.0000E+00  0.0000E+00  0.0000E+00
    -13.783  0.0000E+00  0.0000E+00  0.0000E+00
    -13.680  0.0000E+00  0.0000E+00  0.0000E+00
    -13.577  0.0000E+00  0.0000E+00  0.0000E+00
    -13.475  0.0000E+00  0.0000E+00  0.0000E+00