 vasp.5.4.4.18Apr17-6-g9f103f2a35 (build Jun 29 2021 12:14:42) complex           
 executed on tx2_gcc-7.3_libsci-1 date 2021.09.21  08:32:47
 running on   64 total cores
 distrk:  each k-point on   64 cores,    1 groups
 distr:  one band on NCORES_PER_BAND=   8 cores,    8 groups


--------------------------------------------------------------------------------------------------------


 INCAR:
 POTCAR:    PAW_PBE Cs_sv 08Apr2002               
 POTCAR:    PAW_PBE Pb_d 06Sep2000                
 POTCAR:    PAW_PBE Br 06Sep2000                  
 POTCAR:    PAW_PBE Cs_sv 08Apr2002               
   SHA256 =  c1463496f0f6037ed62c6012a8013a89ee9ad6ffb38599dcd6c079e7ed31779b Cs
   COPYR  = (c) Copyright 08Apr2002 Georg Kresse                                
   COPYR  = This file is part of the software VASP. Any use, copying, and all ot
   COPYR  = If you do not have a valid VASP license, you may not use, copy or di
   VRHFIN =Cs: 5s5p6s                                                           
   LEXCH  = PE                                                                  
   EATOM  =   555.6835 eV,   40.8416 Ry                                         
                                                                                
   TITEL  = PAW_PBE Cs_sv 08Apr2002                                             
   LULTRA =        F    use ultrasoft PP ?                                      
   IUNSCR =        1    unscreen: 0-lin 1-nonlin 2-no                           
   RPACOR =    2.200    partial core radius                                     
   POMASS =  132.900; ZVAL   =    9.000    mass and valenz                      
   RCORE  =    2.500    outmost cutoff radius                                   
   RWIGS  =    2.500; RWIGS  =    1.323    wigner-seitz radius (au A)           
   ENMAX  =  220.318; ENMIN  =  165.238 eV                                      
   RCLOC  =    2.207    cutoff for local pot                                    
   LCOR   =        T    correct aug charges                                     
   LPAW   =        T    paw PP                                                  
   EAUG   =  407.933                                                            
   DEXC   =    0.000                                                            
   RMAX   =    2.554    core radius for proj-oper                               
   RAUG   =    1.300    factor for augmentation sphere                          
   RDEP   =    2.590    radius for radial grids                                 
   RDEPT  =    2.117    core radius for aug-charge                              
                                                                                
   Atomic configuration                                                         
   13 entries                                                                   
     n  l   j            E        occ.                                          
     1  0  0.50    -35790.1377   2.0000                                         
     2  0  0.50     -5613.6201   2.0000                                         
     2  1  1.50     -5035.0101   6.0000                                         
     3  0  0.50     -1167.0767   2.0000                                         
     3  1  1.50      -980.9754   6.0000                                         
     3  2  2.50      -708.0703  10.0000                                         
     4  0  0.50      -220.2386   2.0000                                         
     4  1  1.50      -160.7596   6.0000                                         
     4  2  2.50       -74.2354  10.0000                                         
     5  0  0.50       -26.7287   2.0000                                         
     6  0  0.50        -2.0862   1.0000                                         
     5  1  1.50       -13.5159   6.0000                                         
     5  2  2.50        -0.4136   0.0000                                         
   Description                                                                  
     l       E           TYP  RCUT    TYP  RCUT                                 
     0    -26.7287425     23  1.900                                             
     0     -2.0862306     23  1.900                                             
     1    -13.5158719     23  2.500                                             
     1     -2.7211652     23  2.500                                             
     2     -0.4136171     23  2.500                                             
  local pseudopotential read in
  partial core-charges read in
  partial kinetic energy density read in
  atomic valenz-charges read in
  non local Contribution for L=           0  read in
    real space projection operators read in
  non local Contribution for L=           0  read in
    real space projection operators read in
  non local Contribution for L=           1  read in
    real space projection operators read in
  non local Contribution for L=           1  read in
    real space projection operators read in
  non local Contribution for L=           2  read in
    real space projection operators read in
    PAW grid and wavefunctions read in

   number of l-projection  operators is LMAX  =           5
   number of lm-projection operators is LMMAX =          13

 POTCAR:    PAW_PBE Pb_d 06Sep2000                
   SHA256 =  fb885b08f0fba73a15f6a6b0e39bd200c13ec96ef97cf3ecd8e63bade5137abd Pb
   COPYR  = (c) Copyright 06Sep2000 Georg Kresse                                
   COPYR  = This file is part of the software VASP. Any use, copying, and all ot
   COPYR  = If you do not have a valid VASP license, you may not use, copy or di
   VRHFIN =Pb:                                                                  
   LEXCH  = PE                                                                  
   EATOM  =  1661.6185 eV,  122.1255 Ry                                         
                                                                                
   TITEL  = PAW_PBE Pb_d 06Sep2000                                              
   LULTRA =        F    use ultrasoft PP ?                                      
   IUNSCR =        1    unscreen: 0-lin 1-nonlin 2-no                           
   RPACOR =    2.200    partial core radius                                     
   POMASS =  207.200; ZVAL   =   14.000    mass and valenz                      
   RCORE  =    2.500    outmost cutoff radius                                   
   RWIGS  =    3.260; RWIGS  =    1.725    wigner-seitz radius (au A)           
   ENMAX  =  237.835; ENMIN  =  178.376 eV                                      
   ICORE  =        3    local potential                                         
   LCOR   =        T    correct aug charges                                     
   LPAW   =        T    paw PP                                                  
   EAUG   =  391.914                                                            
   DEXC   =    0.000                                                            
   RMAX   =    2.565    core radius for proj-oper                               
   RAUG   =    1.300    factor for augmentation sphere                          
   RDEP   =    2.643    radius for radial grids                                 
   RDEPT  =    2.092    core radius for aug-charge                              
                                                                                
   Atomic configuration                                                         
   16 entries                                                                   
     n  l   j            E        occ.                                          
     1  0  0.50    -88091.8466   2.0000                                         
     2  0  0.50    -15753.4197   2.0000                                         
     2  1  1.50    -13508.1797   6.0000                                         
     3  0  0.50     -3781.7194   2.0000                                         
     3  1  1.50     -3138.2529   6.0000                                         
     3  2  2.50     -2483.2977  10.0000                                         
     4  0  0.50      -856.2895   2.0000                                         
     4  1  1.50      -645.4942   6.0000                                         
     4  2  2.50      -401.8768  10.0000                                         
     4  3  3.50      -132.9059  14.0000                                         
     5  0  0.50      -144.0950   2.0000                                         
     5  1  1.50       -85.7879   6.0000                                         
     5  2  2.50       -21.1769  10.0000                                         
     6  0  0.50       -12.0372   2.0000                                         
     6  1  1.50        -3.4971   2.0000                                         
     5  3  2.50        -2.7212   0.0000                                         
   Description                                                                  
     l       E           TYP  RCUT    TYP  RCUT                                 
     2    -21.1768523     23  2.500                                             
     2      1.3605826     23  2.500                                             
     0    -12.0371562     23  2.500                                             
     0     13.6058260     23  2.500                                             
     1     -3.4971339     23  2.500                                             
     1     13.6058260     23  2.500                                             
     3     -1.3605826      7  2.500                                             
  local pseudopotential read in
  partial core-charges read in
  partial kinetic energy density read in
  atomic valenz-charges read in
  non local Contribution for L=           2  read in
    real space projection operators read in
  non local Contribution for L=           2  read in
    real space projection operators read in
  non local Contribution for L=           0  read in
    real space projection operators read in
  non local Contribution for L=           0  read in
    real space projection operators read in
  non local Contribution for L=           1  read in
    real space projection operators read in
  non local Contribution for L=           1  read in
    real space projection operators read in
    PAW grid and wavefunctions read in

   number of l-projection  operators is LMAX  =           6
   number of lm-projection operators is LMMAX =          18

 POTCAR:    PAW_PBE Br 06Sep2000                  
   SHA256 =  96a73d2954943bbee26f4990d676cc6c3bf44b8dd2c75cd4b3b825d8403f0103 Br
   COPYR  = (c) Copyright 06Sep2000 Georg Kresse                                
   COPYR  = This file is part of the software VASP. Any use, copying, and all ot
   COPYR  = If you do not have a valid VASP license, you may not use, copy or di
   VRHFIN =Br: s2p5                                                             
   LEXCH  = PE                                                                  
   EATOM  =   368.4488 eV,   27.0802 Ry                                         
                                                                                
   TITEL  = PAW_PBE Br 06Sep2000                                                
   LULTRA =        F    use ultrasoft PP ?                                      
   IUNSCR =        1    unscreen: 0-lin 1-nonlin 2-no                           
   RPACOR =    1.900    partial core radius                                     
   POMASS =   79.904; ZVAL   =    7.000    mass and valenz                      
   RCORE  =    2.100    outmost cutoff radius                                   
   RWIGS  =    2.200; RWIGS  =    1.164    wigner-seitz radius (au A)           
   ENMAX  =  216.285; ENMIN  =  162.214 eV                                      
   ICORE  =        3    local potential                                         
   LCOR   =        T    correct aug charges                                     
   LPAW   =        T    paw PP                                                  
   EAUG   =  503.852                                                            
   DEXC   =    0.000                                                            
   RMAX   =    2.139    core radius for proj-oper                               
   RAUG   =    1.300    factor for augmentation sphere                          
   RDEP   =    2.186    radius for radial grids                                 
   RDEPT  =    1.890    core radius for aug-charge                              
                                                                                
   Atomic configuration                                                         
   10 entries                                                                   
     n  l   j            E        occ.                                          
     1  0  0.50    -13316.2796   2.0000                                         
     2  0  0.50     -1732.8239   2.0000                                         
     2  1  1.50     -1528.2193   6.0000                                         
     3  0  0.50      -238.0460   2.0000                                         
     3  1  1.50      -173.4609   6.0000                                         
     3  2  2.50       -66.7132  10.0000                                         
     4  0  0.50       -20.1334   2.0000                                         
     4  1  0.50        -7.8591   5.0000                                         
     4  2  2.50        -8.1635   0.0000                                         
     4  3  2.50        -8.1635   0.0000                                         
   Description                                                                  
     l       E           TYP  RCUT    TYP  RCUT                                 
     0    -20.1333652     23  2.100                                             
     0    -21.4939478     23  2.100                                             
     1     -7.8591052     23  2.100                                             
     1     -3.1608434     23  2.100                                             
     2     -8.1634956     23  2.100                                             
     3     -1.3605826      7  2.100                                             
  local pseudopotential read in
  partial core-charges read in
  partial kinetic energy density read in
  atomic valenz-charges read in
  non local Contribution for L=           0  read in
    real space projection operators read in
  non local Contribution for L=           0  read in
    real space projection operators read in
  non local Contribution for L=           1  read in
    real space projection operators read in
  non local Contribution for L=           1  read in
    real space projection operators read in
  non local Contribution for L=           2  read in
    real space projection operators read in
    PAW grid and wavefunctions read in

   number of l-projection  operators is LMAX  =           5
   number of lm-projection operators is LMMAX =          13

 Optimization of the real space projectors (new method)

 maximal supplied QI-value         = 15.12
 optimisation between [QCUT,QGAM] = [  8.77, 17.69] = [ 21.53, 87.61] Ry 
 Optimized for a Real-space Cutoff    1.85 Angstroem

   l    n(q)    QCUT    max X(q) W(low)/X(q) W(high)/X(q)  e(spline) 
   0     10     8.768    25.322    0.81E-04    0.51E-04    0.48E-06
   0     10     8.768    99.187    0.78E-04    0.50E-04    0.47E-06
   1      9     8.768    11.761    0.21E-03    0.20E-03    0.37E-06
   1      9     8.768     8.275    0.24E-03    0.22E-03    0.41E-06
   2      9     8.768     3.829    0.23E-04    0.15E-03    0.18E-06
 Optimization of the real space projectors (new method)

 maximal supplied QI-value         = 15.12
 optimisation between [QCUT,QGAM] = [  8.77, 17.69] = [ 21.53, 87.61] Ry 
 Optimized for a Real-space Cutoff    1.59 Angstroem

   l    n(q)    QCUT    max X(q) W(low)/X(q) W(high)/X(q)  e(spline) 
   2      7     8.768     3.846    0.48E-04    0.11E-03    0.11E-06
   2      7     8.768     8.593    0.20E-03    0.22E-04    0.24E-06
   0      8     8.768    20.082    0.68E-04    0.88E-04    0.41E-07
   0      8     8.768     8.597    0.89E-04    0.13E-03    0.59E-07
   1      8     8.768    33.223    0.15E-03    0.53E-04    0.87E-07
   1      8     8.768    15.899    0.14E-03    0.44E-04    0.78E-07
 Optimization of the real space projectors (new method)

 maximal supplied QI-value         = 17.95
 optimisation between [QCUT,QGAM] = [  8.80, 17.59] = [ 21.67, 86.68] Ry 
 Optimized for a Real-space Cutoff    1.59 Angstroem

   l    n(q)    QCUT    max X(q) W(low)/X(q) W(high)/X(q)  e(spline) 
   0      8     8.797   175.082    0.82E-04    0.14E-03    0.89E-07
   0      8     8.797   174.004    0.79E-04    0.14E-03    0.86E-07
   1      8     8.797    54.315    0.16E-03    0.14E-04    0.30E-06
   1      8     8.797    42.441    0.16E-03    0.14E-04    0.30E-06
   2      7     8.797     3.596    0.92E-04    0.15E-03    0.85E-07
  PAW_PBE Cs_sv 08Apr2002               :
 energy of atom  1       EATOM= -555.6835
 kinetic energy error for atom=    0.0069 (will be added to EATOM!!)
  PAW_PBE Pb_d 06Sep2000                :
 energy of atom  2       EATOM=-1661.6185
 kinetic energy error for atom=    0.0498 (will be added to EATOM!!)
  PAW_PBE Br 06Sep2000                  :
 energy of atom  3       EATOM= -368.4488
 kinetic energy error for atom=    0.0072 (will be added to EATOM!!)


 POSCAR: Cs4 Pb4 Br12                            
  positions in direct lattice
  velocities in cartesian coordinates

 METAGGA = SCAN     LMAXTAU =  6    LMIXTAU =  F

 exchange correlation table for  LEXCH =        8
   RHO(1)=    0.500       N(1)  =     2000
   RHO(2)=  100.500       N(2)  =     4000

 VTST: version 3.2, (02/03/18)

 CHAIN: initializing optimizer
 
 OPT: Using VASP Conjugate-Gradient optimizer
 CHAIN: Read ICHAIN            0

 POSCAR: Cs4 Pb4 Br12                            
  positions in direct lattice
  velocities in cartesian coordinates



--------------------------------------------------------------------------------------------------------


 ion  position               nearest neighbor table
   1  0.054  0.250  0.483-
   2  0.446  0.750  0.983-
   3  0.554  0.250  0.017-
   4  0.946  0.750  0.517-
   5  0.000  0.000  0.000-  10 2.96  11 2.96  15 3.11  18 3.11  17 3.12  16 3.12
   6  0.500  0.000  0.500-   9 2.96  12 2.96  16 3.11  17 3.11  15 3.12  18 3.12
   7  0.500  0.500  0.500-   9 2.96  12 2.96  13 3.11  19 3.11  14 3.12  20 3.12
   8  0.000  0.500  0.000-  10 2.96  11 2.96  14 3.11  20 3.11  19 3.12  13 3.12
   9  0.527  0.750  0.414-   6 2.96   7 2.96
  10  0.973  0.250  0.914-   5 2.96   8 2.96
  11  0.027  0.750  0.086-   5 2.96   8 2.96
  12  0.473  0.250  0.586-   6 2.96   7 2.96
  13  0.279  0.462  0.220-   7 3.11   8 3.12
  14  0.221  0.538  0.720-   8 3.11   7 3.12
  15  0.779  0.038  0.280-   5 3.11   6 3.12
  16  0.721  0.962  0.780-   6 3.11   5 3.12
  17  0.279  0.038  0.220-   6 3.11   5 3.12
  18  0.221  0.962  0.720-   5 3.11   6 3.12
  19  0.721  0.538  0.780-   7 3.11   8 3.12
  20  0.779  0.462  0.280-   8 3.11   7 3.12

  LATTYP: Found a simple orthorhombic cell.
 ALAT       =     8.4818795814
 B/A-ratio  =     1.0423418999
 C/A-ratio  =     1.3462457580
  
  Lattice vectors:
  
 A1 = (   0.0000000000,   0.0000000000,   8.4818795814)
 A2 = (  -8.8410184778,   0.0000000000,   0.0000000000)
 A3 = (   0.0000000000, -11.4186944062,   0.0000000000)


Analysis of symmetry for initial positions (statically):
=====================================================================
 Subroutine PRICEL returns:
 Original cell was already a primitive cell.
 

 Routine SETGRP: Setting up the symmetry group for a 
 simple orthorhombic supercell.


 Subroutine GETGRP returns: Found  8 space group operations
 (whereof  2 operations were pure point group operations)
 out of a pool of  8 trial point group operations.


The static configuration has the point symmetry S_2 .
 The point group associated with its full space group is D_2h.


Analysis of symmetry for dynamics (positions and initial velocities):
=====================================================================
 Subroutine PRICEL returns:
 Original cell was already a primitive cell.
 

 Routine SETGRP: Setting up the symmetry group for a 
 simple orthorhombic supercell.


 Subroutine GETGRP returns: Found  8 space group operations
 (whereof  2 operations were pure point group operations)
 out of a pool of  8 trial point group operations.


The dynamic configuration has the point symmetry S_2 .
 The point group associated with its full space group is D_2h.


 Subroutine INISYM returns: Found  8 space group operations
 (whereof  2 operations are pure point group operations),
 and found     1 'primitive' translations



 KPOINTS: 1x1x1                                   

Automatic generation of k-mesh.
Space group operators:
 irot       det(A)        alpha          n_x          n_y          n_z        tau_x        tau_y        tau_z
    1     1.000000     0.000001     1.000000     0.000000     0.000000     0.000000     0.000000     0.000000
    2    -1.000000     0.000001     1.000000     0.000000     0.000000     0.000000     0.000000     0.000000
    3     1.000000   180.000000     0.000000     1.000000     0.000000     0.000000    -0.500000     0.000000
    4    -1.000000   180.000000     0.000000     1.000000     0.000000     0.000000    -0.500000     0.000000
    5     1.000000   179.999999     1.000000     0.000000     0.000000    -0.500000    -0.500000     0.500000
    6    -1.000000   179.999999     1.000000     0.000000     0.000000    -0.500000    -0.500000     0.500000
    7     1.000000   179.999999     0.000000     0.000000     1.000000    -0.500000     0.000000     0.500000
    8    -1.000000   179.999999     0.000000     0.000000     1.000000    -0.500000     0.000000     0.500000
 
 Subroutine IBZKPT returns following result:
 ===========================================
 
 Found      8 irreducible k-points:
 
 Following reciprocal coordinates:
            Coordinates               Weight
  0.000000  0.000000  0.000000      1.000000
  0.333333  0.000000  0.000000      2.000000
  0.000000  0.500000  0.000000      1.000000
  0.333333  0.500000  0.000000      2.000000
  0.000000  0.000000  0.333333      2.000000
  0.333333  0.000000  0.333333      4.000000
  0.000000  0.500000  0.333333      2.000000
  0.333333  0.500000  0.333333      4.000000
 
 Following cartesian coordinates:
            Coordinates               Weight
  0.000000  0.000000  0.000000      1.000000
  0.037703  0.000000  0.000000      2.000000
  0.000000  0.043788  0.000000      1.000000
  0.037703  0.043788  0.000000      2.000000
  0.000000  0.000000  0.039299      2.000000
  0.037703  0.000000  0.039299      4.000000
  0.000000  0.043788  0.039299      2.000000
  0.037703  0.043788  0.039299      4.000000
 


--------------------------------------------------------------------------------------------------------




 Dimension of arrays:
   k-points           NKPTS =      8   k-points in BZ     NKDIM =      8   number of bands    NBANDS=    112
   number of dos      NEDOS =    301   number of ions     NIONS =     20
   non local maximal  LDIM  =      6   non local SUM 2l+1 LMDIM =     18
   total plane-waves  NPLWV = 168000
   max r-space proj   IRMAX =   5236   max aug-charges    IRDMAX=  83523
   dimension x,y,z NGX =    50 NGY =   70 NGZ =   48
   dimension x,y,z NGXF=   100 NGYF=  140 NGZF=   96
   support grid    NGXF=   200 NGYF=  280 NGZF=  192
   ions per type =               4   4  12
   NGX,Y,Z   is equivalent  to a cutoff of   9.40, 10.19,  9.41 a.u.
   NGXF,Y,Z  is equivalent  to a cutoff of  18.80, 20.38, 18.82 a.u.

 SYSTEM =  CsPbBr3 cubic bulk                      
 POSCAR =  Cs4 Pb4 Br12                            

 Startparameter for this run:
   NWRITE =      2    write-flag & timer
   PREC   = accura    normal or accurate (medium, high low for compatibility)
   ISTART =      0    job   : 0-new  1-cont  2-samecut
   ICHARG =      2    charge: 1-file 2-atom 10-const
   ISPIN  =      1    spin polarized calculation?
   LNONCOLLINEAR =      F non collinear calculations
   LSORBIT =      F    spin-orbit coupling
   INIWAV =      1    electr: 0-lowe 1-rand  2-diag
   LASPH  =      T    aspherical Exc in radial PAW
   METAGGA=      F    non-selfconsistent MetaGGA calc.

 Electronic Relaxation 1
   ENCUT  =  300.0 eV  22.05 Ry    4.70 a.u.  12.49 16.13 11.98*2*pi/ulx,y,z
   ENINI  =  300.0     initial cutoff
   ENAUG  =  503.9 eV  augmentation charge cutoff
   NELM   =    200;   NELMIN=  2; NELMDL= -5     # of ELM steps 
   EDIFF  = 0.1E-05   stopping-criterion for ELM
   LREAL  =      T    real-space projection
   NLSPLINE    = F    spline interpolate recip. space projectors
   LCOMPAT=      F    compatible to vasp.4.4
   GGA_COMPAT  = T    GGA compatible to vasp.4.4-vasp.4.6
   LMAXPAW     = -100 max onsite density
   LMAXMIX     =    2 max onsite mixed and CHGCAR
   VOSKOWN=      0    Vosko Wilk Nusair interpolation
   ROPT   =   -0.00025  -0.00025  -0.00025
 Ionic relaxation
   EDIFFG = -.1E-01   stopping-criterion for IOM
   NSW    =      0    number of steps for IOM
   NBLOCK =      1;   KBLOCK =      1    inner block; outer block 
   IBRION =     -1    ionic relax: 0-MD 1-quasi-New 2-CG
   NFREE  =      1    steps in history (QN), initial steepest desc. (CG)
   ISIF   =      3    stress and relaxation
   IWAVPR =     10    prediction:  0-non 1-charg 2-wave 3-comb
   ISYM   =      2    0-nonsym 1-usesym 2-fastsym
   LCORR  =      T    Harris-Foulkes like correction to forces

   POTIM  = 0.5000    time-step for ionic-motion
   TEIN   =    0.0    initial temperature
   TEBEG  =    0.0;   TEEND  =   0.0 temperature during run
   SMASS  =  -3.00    Nose mass-parameter (am)
   estimated Nose-frequenzy (Omega)   =  0.10E-29 period in steps =****** mass=  -0.179E-26a.u.
   SCALEE = 1.0000    scale energy and forces
   NPACO  =    256;   APACO  = 16.0  distance and # of slots for P.C.
   PSTRESS=    0.0 pullay stress

  Mass of Ions in am
   POMASS = 132.90207.20 79.90
  Ionic Valenz
   ZVAL   =   9.00 14.00  7.00
  Atomic Wigner-Seitz radii
   RWIGS  =  -1.00 -1.00 -1.00
  virtual crystal weights 
   VCA    =   1.00  1.00  1.00
   NELECT =     176.0000    total number of electrons
   NUPDOWN=      -1.0000    fix difference up-down

 DOS related values:
   EMIN   =  10.00;   EMAX   =-10.00  energy-range for DOS
   EFERMI =   0.00
   ISMEAR =     0;   SIGMA  =   0.01  broadening in eV -4-tet -1-fermi 0-gaus

 Electronic relaxation 2 (details)
   IALGO  =     38    algorithm
   LDIAG  =      T    sub-space diagonalisation (order eigenvalues)
   LSUBROT=      F    optimize rotation matrix (better conditioning)
   TURBO    =      0    0=normal 1=particle mesh
   IRESTART =      0    0=no restart 2=restart with 2 vectors
   NREBOOT  =      0    no. of reboots
   NMIN     =      0    reboot dimension
   EREF     =   0.00    reference energy to select bands
   IMIX   =      4    mixing-type and parameters
     AMIX     =   0.40;   BMIX     =  1.00
     AMIX_MAG =   1.60;   BMIX_MAG =  1.00
     AMIN     =   0.10
     WC   =   100.;   INIMIX=   1;  MIXPRE=   1;  MAXMIX= -45

 Intra band minimization:
   WEIMIN = 0.0000     energy-eigenvalue tresh-hold
   EBREAK =  0.22E-08  absolut break condition
   DEPER  =   0.30     relativ break condition  

   TIME   =   0.40     timestep for ELM

  volume/ion in A,a.u.               =      42.81       288.92
  Fermi-wavevector in a.u.,A,eV,Ry     =   0.966145  1.825748 12.700158  0.933435
  Thomas-Fermi vector in A             =   2.095921

 Write flags
   LWAVE        =      F    write WAVECAR
   LDOWNSAMPLE  =      F    k-point downsampling of WAVECAR
   LCHARG       =      F    write CHGCAR
   LVTOT        =      F    write LOCPOT, total local potential
   LVHAR        =      T    write LOCPOT, Hartree potential only
   LELF         =      F    write electronic localiz. function (ELF)
   LORBIT       =     10    0 simple, 1 ext, 2 COOP (PROOUT), +10 PAW based schemes


 Dipole corrections
   LMONO  =      F    monopole corrections only (constant potential shift)
   LDIPOL =      F    correct potential (dipole corrections)
   IDIPOL =      0    1-x, 2-y, 3-z, 4-all directions 
   EPSILON=  1.0000000 bulk dielectric constant

 Exchange correlation treatment:
   GGA     =    --    GGA type
   LEXCH   =     8    internal setting for exchange type
   VOSKOWN=      0    Vosko Wilk Nusair interpolation
   LHFCALC =     F    Hartree Fock is set to
   LHFONE  =     F    Hartree Fock one center treatment
   AEXX    =    0.0000 exact exchange contribution

 Linear response parameters
   LEPSILON=     F    determine dielectric tensor
   LRPA    =     F    only Hartree local field effects (RPA)
   LNABLA  =     F    use nabla operator in PAW spheres
   LVEL    =     F    velocity operator in full k-point grid
   LINTERFAST=   F  fast interpolation
   KINTER  =     0    interpolate to denser k-point grid
   CSHIFT  =0.1000    complex shift for real part using Kramers Kronig
   OMEGAMAX=  -1.0    maximum frequency
   DEG_THRESHOLD= 0.2000000E-02 threshold for treating states as degnerate
   RTIME   =   -0.100 relaxation time in fs
  (WPLASMAI=    0.000 imaginary part of plasma frequency in eV, 0.658/RTIME)
   DFIELD  = 0.0000000 0.0000000 0.0000000 field for delta impulse in time

 Orbital magnetization related:
   ORBITALMAG=     F  switch on orbital magnetization
   LCHIMAG   =     F  perturbation theory with respect to B field
   DQ        =  0.001000  dq finite difference perturbation B field
   LLRAUG    =     F  two centre corrections for induced B field



--------------------------------------------------------------------------------------------------------


 Static calculation
 charge density and potential will be updated during run
 non-spin polarized calculation
 Variant of blocked Davidson
 Davidson routine will perform the subspace rotation
 perform sub-space diagonalisation
    after iterative eigenvector-optimisation
 modified Broyden-mixing scheme, WC =      100.0
 initial mixing is a Kerker type mixing with AMIX =  0.4000 and BMIX =      1.0000
 Hartree-type preconditioning will be used
 using additional bands           24
 real space projection scheme for non local part
 use partial core corrections
 calculate Harris-corrections to forces   (improved forces if not selfconsistent)
 use gradient corrections 
 use of overlap-Matrix (Vanderbilt PP)
 Gauss-broadening in eV      SIGMA  =   0.01


--------------------------------------------------------------------------------------------------------


  energy-cutoff  :      300.00
  volume of cell :      856.27
      direct lattice vectors                 reciprocal lattice vectors
     8.841018478  0.000000000  0.000000000     0.113109140  0.000000000  0.000000000
     0.000000000 11.418694406  0.000000000     0.000000000  0.087575686  0.000000000
     0.000000000  0.000000000  8.481879581     0.000000000  0.000000000  0.117898396

  length of vectors
     8.841018478 11.418694406  8.481879581     0.113109140  0.087575686  0.117898396



 k-points in units of 2pi/SCALE and weight: 1x1x1                                   
   0.00000000  0.00000000  0.00000000       0.056
   0.03770305  0.00000000  0.00000000       0.111
   0.00000000  0.04378784  0.00000000       0.056
   0.03770305  0.04378784  0.00000000       0.111
   0.00000000  0.00000000  0.03929947       0.111
   0.03770305  0.00000000  0.03929947       0.222
   0.00000000  0.04378784  0.03929947       0.111
   0.03770305  0.04378784  0.03929947       0.222

 k-points in reciprocal lattice and weights: 1x1x1                                   
   0.00000000  0.00000000  0.00000000       0.056
   0.33333333  0.00000000  0.00000000       0.111
   0.00000000  0.50000000  0.00000000       0.056
   0.33333333  0.50000000  0.00000000       0.111
   0.00000000  0.00000000  0.33333333       0.111
   0.33333333  0.00000000  0.33333333       0.222
   0.00000000  0.50000000  0.33333333       0.111
   0.33333333  0.50000000  0.33333333       0.222

 position of ions in fractional coordinates (direct lattice) 
   0.05422345  0.25000000  0.48323875
   0.44577655  0.75000000  0.98323875
   0.55422345  0.25000000  0.01676125
   0.94577655  0.75000000  0.51676125
   0.00000000  0.00000000  0.00000000
   0.50000000  0.00000000  0.50000000
   0.50000000  0.50000000  0.50000000
   0.00000000  0.50000000  0.00000000
   0.52670607  0.75000000  0.41365717
   0.97329393  0.25000000  0.91365717
   0.02670607  0.75000000  0.08634283
   0.47329393  0.25000000  0.58634283
   0.27901609  0.46206422  0.21956248
   0.22098391  0.53793578  0.71956248
   0.77901609  0.03793578  0.28043752
   0.72098391  0.96206422  0.78043752
   0.27901609  0.03793578  0.21956248
   0.22098391  0.96206422  0.71956248
   0.72098391  0.53793578  0.78043752
   0.77901609  0.46206422  0.28043752

 position of ions in cartesian coordinates  (Angst):
   0.47939055  2.85467360  4.09877289
   3.94111869  8.56402080  8.33971268
   4.89989979  2.85467360  0.14216690
   8.36162793  8.56402080  4.38310669
   0.00000000  0.00000000  0.00000000
   4.42050924  0.00000000  4.24093979
   4.42050924  5.70934720  4.24093979
   0.00000000  5.70934720  0.00000000
   4.65661809  8.56402080  3.50859030
   8.60490962  2.85467360  7.74953009
   0.23610886  8.56402080  0.73234949
   4.18440038  2.85467360  4.97328928
   2.46678638  5.27617011  1.86230251
   1.95372286  6.14252430  6.10324230
   6.88729562  0.43317710  2.37863728
   6.37423209 10.98551731  6.61957707
   2.46678638  0.43317710  1.86230251
   1.95372286 10.98551731  6.10324230
   6.37423209  6.14252430  6.61957707
   6.88729562  5.27617011  2.37863728



--------------------------------------------------------------------------------------------------------


 k-point  1 :   0.0000 0.0000 0.0000  plane waves:   10123
 k-point  2 :   0.3333 0.0000 0.0000  plane waves:   10081
 k-point  3 :   0.0000 0.5000 0.0000  plane waves:   10092
 k-point  4 :   0.3333 0.5000 0.0000  plane waves:   10108
 k-point  5 :   0.0000 0.0000 0.3333  plane waves:   10102
 k-point  6 :   0.3333 0.0000 0.3333  plane waves:   10105
 k-point  7 :   0.0000 0.5000 0.3333  plane waves:   10106
 k-point  8 :   0.3333 0.5000 0.3333  plane waves:   10112

 maximum and minimum number of plane-waves per node :      1301     1235

 maximum number of plane-waves:     10123
 maximum index in each direction: 
   IXMAX=   12   IYMAX=   16   IZMAX=   11
   IXMIN=  -12   IYMIN=  -16   IZMIN=  -12


 real space projection operators:
  total allocation   :       7791.12 KBytes
  max/ min on nodes  :       1111.36        911.33


 parallel 3D FFT for wavefunctions:
    minimum data exchange during FFTs selected (reduces bandwidth)
 parallel 3D FFT for charge:
    minimum data exchange during FFTs selected (reduces bandwidth)


 total amount of memory used by VASP MPI-rank0    43664. kBytes
=======================================================================

   base      :      30000. kBytes
   nonlr-proj:       3140. kBytes
   fftplans  :       4446. kBytes
   grid      :       3667. kBytes
   one-center:         46. kBytes
   wavefun   :       2365. kBytes

     INWAV:  cpu time    0.0000: real time    0.0000
 Broyden mixing: mesh for mixing (old mesh)
   NGX = 25   NGY = 33   NGZ = 23
  (NGX  =100   NGY  =140   NGZ  = 96)
  gives a total of  18975 points

 initial charge density was supplied:
 charge density of overlapping atoms calculated
 number of electron     176.0000000 magnetization 
 keeping initial charge density in first step


--------------------------------------------------------------------------------------------------------


 Maximum index for non-local projection operator          904
 Maximum index for augmentation-charges         4430 (set IRDMAX)


--------------------------------------------------------------------------------------------------------


 First call to EWALD:  gamma=   0.187
 Maximum number of real-space cells 3x 2x 3
 Maximum number of reciprocal cells 3x 3x 3

    FEWALD:  cpu time    0.0021: real time    0.0021


--------------------------------------- Iteration      1(   1)  ---------------------------------------


    POTLOK:  cpu time    0.1276: real time    0.1336
    SETDIJ:  cpu time    1.1090: real time    1.1091
     EDDAV:  cpu time    4.3926: real time    4.3978
       DOS:  cpu time    0.0006: real time    0.0006
    --------------------------------------------
      LOOP:  cpu time    5.6298: real time    5.6411

 eigenvalue-minimisations  :  1856
 total energy-change (2. order) : 0.6520825E+03  (-0.5593245E+04)
 number of electron     176.0000000 magnetization 
 augmentation part      176.0000000 magnetization 

 Free energy of the ion-electron system (eV)
  ---------------------------------------------------
  alpha Z        PSCENC =       421.37273527
  Ewald energy   TEWEN  =     -9006.32563340
  -Hartree energ DENC   =     -3783.99293079
  -exchange      EXHF   =         0.00000000
  -V(xc)+E(xc)   XCENC  =       460.46998558
  PAW double counting   =     10816.98087266   -11353.96092700
  entropy T*S    EENTRO =        -0.00132368
  eigenvalues    EBANDS =      -192.74036392
  atomic energy  EATOM  =     13290.28009929
  Solvation  Ediel_sol  =         0.00000000
  ---------------------------------------------------
  free energy    TOTEN  =       652.08251400 eV

  energy without entropy =      652.08383768  energy(sigma->0) =      652.08317584


--------------------------------------------------------------------------------------------------------




--------------------------------------- Iteration      1(   2)  ---------------------------------------


     EDDAV:  cpu time    4.9142: real time    4.9317
       DOS:  cpu time    0.0003: real time    0.0003
    --------------------------------------------
      LOOP:  cpu time    4.9145: real time    4.9320

 eigenvalue-minimisations  :  2200
 total energy-change (2. order) :-0.1228147E+04  (-0.1182840E+04)
 number of electron     176.0000000 magnetization 
 augmentation part      176.0000000 magnetization 

 Free energy of the ion-electron system (eV)
  ---------------------------------------------------
  alpha Z        PSCENC =       421.37273527
  Ewald energy   TEWEN  =     -9006.32563340
  -Hartree energ DENC   =     -3783.99293079
  -exchange      EXHF   =         0.00000000
  -V(xc)+E(xc)   XCENC  =       460.46998558
  PAW double counting   =     10816.98087266   -11353.96092700
  entropy T*S    EENTRO =        -0.00000000
  eigenvalues    EBANDS =     -1420.88907193
  atomic energy  EATOM  =     13290.28009929
  Solvation  Ediel_sol  =         0.00000000
  ---------------------------------------------------
  free energy    TOTEN  =      -576.06487033 eV

  energy without entropy =     -576.06487033  energy(sigma->0) =     -576.06487033


--------------------------------------------------------------------------------------------------------




--------------------------------------- Iteration      1(   3)  ---------------------------------------


     EDDAV:  cpu time    5.2533: real time    5.2633
       DOS:  cpu time    0.0003: real time    0.0003
    --------------------------------------------
      LOOP:  cpu time    5.2536: real time    5.2636

 eigenvalue-minimisations  :  2416
 total energy-change (2. order) :-0.1726485E+03  (-0.1715363E+03)
 number of electron     176.0000000 magnetization 
 augmentation part      176.0000000 magnetization 

 Free energy of the ion-electron system (eV)
  ---------------------------------------------------
  alpha Z        PSCENC =       421.37273527
  Ewald energy   TEWEN  =     -9006.32563340
  -Hartree energ DENC   =     -3783.99293079
  -exchange      EXHF   =         0.00000000
  -V(xc)+E(xc)   XCENC  =       460.46998558
  PAW double counting   =     10816.98087266   -11353.96092700
  entropy T*S    EENTRO =        -0.00000000
  eigenvalues    EBANDS =     -1593.53761381
  atomic energy  EATOM  =     13290.28009929
  Solvation  Ediel_sol  =         0.00000000
  ---------------------------------------------------
  free energy    TOTEN  =      -748.71341221 eV

  energy without entropy =     -748.71341221  energy(sigma->0) =     -748.71341221


--------------------------------------------------------------------------------------------------------




--------------------------------------- Iteration      1(   4)  ---------------------------------------


     EDDAV:  cpu time    4.8580: real time    4.8598
       DOS:  cpu time    0.0003: real time    0.0003
    --------------------------------------------
      LOOP:  cpu time    4.8583: real time    4.8601

 eigenvalue-minimisations  :  2144
 total energy-change (2. order) :-0.5739313E+01  (-0.5720823E+01)
 number of electron     176.0000000 magnetization 
 augmentation part      176.0000000 magnetization 

 Free energy of the ion-electron system (eV)
  ---------------------------------------------------
  alpha Z        PSCENC =       421.37273527
  Ewald energy   TEWEN  =     -9006.32563340
  -Hartree energ DENC   =     -3783.99293079
  -exchange      EXHF   =         0.00000000
  -V(xc)+E(xc)   XCENC  =       460.46998558
  PAW double counting   =     10816.98087266   -11353.96092700
  entropy T*S    EENTRO =        -0.00000000
  eigenvalues    EBANDS =     -1599.27692642
  atomic energy  EATOM  =     13290.28009929
  Solvation  Ediel_sol  =         0.00000000
  ---------------------------------------------------
  free energy    TOTEN  =      -754.45272482 eV

  energy without entropy =     -754.45272482  energy(sigma->0) =     -754.45272482


--------------------------------------------------------------------------------------------------------




--------------------------------------- Iteration      1(   5)  ---------------------------------------


     EDDAV:  cpu time    5.1604: real time    5.1883
       DOS:  cpu time    0.0003: real time    0.0003
    CHARGE:  cpu time    0.9569: real time    0.9570
    MIXING:  cpu time    0.0009: real time    0.0009
    --------------------------------------------
      LOOP:  cpu time    6.1186: real time    6.1465

 eigenvalue-minimisations  :  2368
 total energy-change (2. order) :-0.2549280E+00  (-0.2547717E+00)
 number of electron     176.0000003 magnetization 
 augmentation part       -3.2195221 magnetization 

 Broyden mixing:
  rms(total) = 0.68381E+00    rms(broyden)= 0.68354E+00
  rms(prec ) = 0.10131E+01
  weight for this iteration     100.00

 Free energy of the ion-electron system (eV)
  ---------------------------------------------------
  alpha Z        PSCENC =       421.37273527
  Ewald energy   TEWEN  =     -9006.32563340
  -Hartree energ DENC   =     -3783.99293079
  -exchange      EXHF   =         0.00000000
  -V(xc)+E(xc)   XCENC  =       460.46998558
  PAW double counting   =     10816.98087266   -11353.96092700
  entropy T*S    EENTRO =        -0.00000000
  eigenvalues    EBANDS =     -1599.53185443
  atomic energy  EATOM  =     13290.28009929
  Solvation  Ediel_sol  =         0.00000000
  ---------------------------------------------------
  free energy    TOTEN  =      -754.70765283 eV

  energy without entropy =     -754.70765283  energy(sigma->0) =     -754.70765283


--------------------------------------------------------------------------------------------------------




--------------------------------------- Iteration      1(   6)  ---------------------------------------


    POTLOK:  cpu time    0.1265: real time    0.1735
    SETDIJ:  cpu time    1.1069: real time    1.1069
     EDDAV:  cpu time    5.1009: real time    5.1011
       DOS:  cpu time    0.0004: real time    0.0004
    CHARGE:  cpu time    0.9177: real time    0.9182
    MIXING:  cpu time    0.0010: real time    0.0010
    --------------------------------------------
      LOOP:  cpu time    7.2533: real time    7.3011

 eigenvalue-minimisations  :  2360
 total energy-change (2. order) : 0.4012072E+02  (-0.1201468E+01)
 number of electron     176.0000003 magnetization 
 augmentation part       -2.4777608 magnetization 

 Broyden mixing:
  rms(total) = 0.48447E+00    rms(broyden)= 0.48440E+00
  rms(prec ) = 0.63046E+00
  weight for this iteration     100.00

 eigenvalues of (default mixing * dielectric matrix)
  average eigenvalue GAMMA=   1.0987
  1.0987

 Free energy of the ion-electron system (eV)
  ---------------------------------------------------
  alpha Z        PSCENC =       421.37273527
  Ewald energy   TEWEN  =     -9006.32563340
  -Hartree energ DENC   =     -3774.56060931
  -exchange      EXHF   =         0.00000000
  -V(xc)+E(xc)   XCENC  =       476.20010562
  PAW double counting   =     10916.12235451   -11451.67518314
  entropy T*S    EENTRO =        -0.00000000
  eigenvalues    EBANDS =     -1586.00080496
  atomic energy  EATOM  =     13290.28009929
  Solvation  Ediel_sol  =         0.00000000
  ---------------------------------------------------
  free energy    TOTEN  =      -714.58693611 eV

  energy without entropy =     -714.58693611  energy(sigma->0) =     -714.58693611


--------------------------------------------------------------------------------------------------------




--------------------------------------- Iteration      1(   7)  ---------------------------------------


    POTLOK:  cpu time    0.1483: real time    0.1685
    SETDIJ:  cpu time    1.1083: real time    1.1083
     EDDAV:  cpu time    5.0278: real time    5.0280
       DOS:  cpu time    0.0004: real time    0.0004
    CHARGE:  cpu time    0.9189: real time    0.9190
    MIXING:  cpu time    0.0010: real time    0.0010
    --------------------------------------------
      LOOP:  cpu time    7.2046: real time    7.2251

 eigenvalue-minimisations  :  2304
 total energy-change (2. order) : 0.2419577E+00  (-0.4351439E+00)
 number of electron     176.0000003 magnetization 
 augmentation part       -2.1950434 magnetization 

 Broyden mixing:
  rms(total) = 0.26057E+00    rms(broyden)= 0.26055E+00
  rms(prec ) = 0.29039E+00
  weight for this iteration     100.00

 eigenvalues of (default mixing * dielectric matrix)
  average eigenvalue GAMMA=   1.2987
  1.2987  1.2987

 Free energy of the ion-electron system (eV)
  ---------------------------------------------------
  alpha Z        PSCENC =       421.37273527
  Ewald energy   TEWEN  =     -9006.32563340
  -Hartree energ DENC   =     -3794.16213647
  -exchange      EXHF   =         0.00000000
  -V(xc)+E(xc)   XCENC  =       478.78546325
  PAW double counting   =     11187.70675454   -11721.87945651
  entropy T*S    EENTRO =        -0.00000000
  eigenvalues    EBANDS =     -1570.12280442
  atomic energy  EATOM  =     13290.28009929
  Solvation  Ediel_sol  =         0.00000000
  ---------------------------------------------------
  free energy    TOTEN  =      -714.34497846 eV

  energy without entropy =     -714.34497846  energy(sigma->0) =     -714.34497846


--------------------------------------------------------------------------------------------------------




--------------------------------------- Iteration      1(   8)  ---------------------------------------


    POTLOK:  cpu time    0.1602: real time    0.1679
    SETDIJ:  cpu time    1.1061: real time    1.1061
     EDDAV:  cpu time    4.7535: real time    4.7538
       DOS:  cpu time    0.0004: real time    0.0004
    CHARGE:  cpu time    0.9173: real time    0.9174
    MIXING:  cpu time    0.0009: real time    0.0009
    --------------------------------------------
      LOOP:  cpu time    6.9384: real time    6.9465

 eigenvalue-minimisations  :  2120
 total energy-change (2. order) :-0.1082489E+00  (-0.1990873E-01)
 number of electron     176.0000003 magnetization 
 augmentation part       -2.2466529 magnetization 

 Broyden mixing:
  rms(total) = 0.15042E+00    rms(broyden)= 0.15041E+00
  rms(prec ) = 0.17099E+00
  weight for this iteration     100.00

 eigenvalues of (default mixing * dielectric matrix)
  average eigenvalue GAMMA=   1.6882
  1.1300  1.2869  2.6478

 Free energy of the ion-electron system (eV)
  ---------------------------------------------------
  alpha Z        PSCENC =       421.37273527
  Ewald energy   TEWEN  =     -9006.32563340
  -Hartree energ DENC   =     -3795.38517136
  -exchange      EXHF   =         0.00000000
  -V(xc)+E(xc)   XCENC  =       479.00752942
  PAW double counting   =     11287.24505904   -11821.48208434
  entropy T*S    EENTRO =        -0.00000000
  eigenvalues    EBANDS =     -1569.16576132
  atomic energy  EATOM  =     13290.28009929
  Solvation  Ediel_sol  =         0.00000000
  ---------------------------------------------------
  free energy    TOTEN  =      -714.45322740 eV

  energy without entropy =     -714.45322740  energy(sigma->0) =     -714.45322740


--------------------------------------------------------------------------------------------------------




--------------------------------------- Iteration      1(   9)  ---------------------------------------


    POTLOK:  cpu time    0.1603: real time    0.1737
    SETDIJ:  cpu time    1.1058: real time    1.1058
     EDDAV:  cpu time    4.5873: real time    4.5875
       DOS:  cpu time    0.0007: real time    0.0007
    CHARGE:  cpu time    0.9172: real time    0.9173
    MIXING:  cpu time    0.0010: real time    0.0010
    --------------------------------------------
      LOOP:  cpu time    6.7723: real time    6.7860

 eigenvalue-minimisations  :  2000
 total energy-change (2. order) :-0.4795607E-01  (-0.1052551E-01)
 number of electron     176.0000003 magnetization 
 augmentation part       -2.2698150 magnetization 

 Broyden mixing:
  rms(total) = 0.33790E-01    rms(broyden)= 0.33787E-01
  rms(prec ) = 0.36493E-01
  weight for this iteration     100.00

 eigenvalues of (default mixing * dielectric matrix)
  average eigenvalue GAMMA=   1.4560
  2.5288  1.2392  1.2392  0.8167

 Free energy of the ion-electron system (eV)
  ---------------------------------------------------
  alpha Z        PSCENC =       421.37273527
  Ewald energy   TEWEN  =     -9006.32563340
  -Hartree energ DENC   =     -3797.65237266
  -exchange      EXHF   =         0.00000000
  -V(xc)+E(xc)   XCENC  =       480.02906723
  PAW double counting   =     11434.96778348   -11969.40668962
  entropy T*S    EENTRO =        -0.00000000
  eigenvalues    EBANDS =     -1567.76617306
  atomic energy  EATOM  =     13290.28009929
  Solvation  Ediel_sol  =         0.00000000
  ---------------------------------------------------
  free energy    TOTEN  =      -714.50118347 eV

  energy without entropy =     -714.50118347  energy(sigma->0) =     -714.50118347


--------------------------------------------------------------------------------------------------------




--------------------------------------- Iteration      1(  10)  ---------------------------------------


    POTLOK:  cpu time    0.1254: real time    0.1699
    SETDIJ:  cpu time    1.1055: real time    1.1055
     EDDAV:  cpu time    5.4993: real time    5.4995
       DOS:  cpu time    0.0004: real time    0.0004
    CHARGE:  cpu time    0.9186: real time    0.9186
    MIXING:  cpu time    0.0010: real time    0.0010
    --------------------------------------------
      LOOP:  cpu time    7.6501: real time    7.6949

 eigenvalue-minimisations  :  2640
 total energy-change (2. order) :-0.1334669E-02  (-0.6892552E-03)
 number of electron     176.0000003 magnetization 
 augmentation part       -2.2623116 magnetization 

 Broyden mixing:
  rms(total) = 0.20373E-01    rms(broyden)= 0.20372E-01
  rms(prec ) = 0.22987E-01
  weight for this iteration     100.00

 eigenvalues of (default mixing * dielectric matrix)
  average eigenvalue GAMMA=   1.6241
  2.5051  2.5051  1.1337  1.1337  0.8428

 Free energy of the ion-electron system (eV)
  ---------------------------------------------------
  alpha Z        PSCENC =       421.37273527
  Ewald energy   TEWEN  =     -9006.32563340
  -Hartree energ DENC   =     -3796.80918347
  -exchange      EXHF   =         0.00000000
  -V(xc)+E(xc)   XCENC  =       479.93202280
  PAW double counting   =     11420.47815698   -11954.99122411
  entropy T*S    EENTRO =        -0.00000000
  eigenvalues    EBANDS =     -1568.43949150
  atomic energy  EATOM  =     13290.28009929
  Solvation  Ediel_sol  =         0.00000000
  ---------------------------------------------------
  free energy    TOTEN  =      -714.50251814 eV

  energy without entropy =     -714.50251814  energy(sigma->0) =     -714.50251814


--------------------------------------------------------------------------------------------------------




--------------------------------------- Iteration      1(  11)  ---------------------------------------


    POTLOK:  cpu time    0.1696: real time    0.1709
    SETDIJ:  cpu time    1.1086: real time    1.1086
     EDDAV:  cpu time    4.5773: real time    4.5775
       DOS:  cpu time    0.0004: real time    0.0004
    CHARGE:  cpu time    0.9189: real time    0.9190
    MIXING:  cpu time    0.0010: real time    0.0010
    --------------------------------------------
      LOOP:  cpu time    6.7757: real time    6.7773

 eigenvalue-minimisations  :  2000
 total energy-change (2. order) :-0.2333782E-02  (-0.2415859E-03)
 number of electron     176.0000003 magnetization 
 augmentation part       -2.2623567 magnetization 

 Broyden mixing:
  rms(total) = 0.74806E-02    rms(broyden)= 0.74801E-02
  rms(prec ) = 0.92192E-02
  weight for this iteration     100.00

 eigenvalues of (default mixing * dielectric matrix)
  average eigenvalue GAMMA=   1.5919
  2.6837  2.6837  1.2061  1.2061  0.8860  0.8860

 Free energy of the ion-electron system (eV)
  ---------------------------------------------------
  alpha Z        PSCENC =       421.37273527
  Ewald energy   TEWEN  =     -9006.32563340
  -Hartree energ DENC   =     -3795.23862145
  -exchange      EXHF   =         0.00000000
  -V(xc)+E(xc)   XCENC  =       479.87940680
  PAW double counting   =     11405.39115780   -11940.14454063
  entropy T*S    EENTRO =        -0.00000000
  eigenvalues    EBANDS =     -1569.71945559
  atomic energy  EATOM  =     13290.28009929
  Solvation  Ediel_sol  =         0.00000000
  ---------------------------------------------------
  free energy    TOTEN  =      -714.50485192 eV

  energy without entropy =     -714.50485192  energy(sigma->0) =     -714.50485192


--------------------------------------------------------------------------------------------------------




--------------------------------------- Iteration      1(  12)  ---------------------------------------


    POTLOK:  cpu time    0.1577: real time    0.1588
    SETDIJ:  cpu time    1.1099: real time    1.1100
     EDDAV:  cpu time    4.8791: real time    4.8792
       DOS:  cpu time    0.0004: real time    0.0004
    CHARGE:  cpu time    0.9182: real time    0.9183
    MIXING:  cpu time    0.0011: real time    0.0011
    --------------------------------------------
      LOOP:  cpu time    7.0664: real time    7.0677

 eigenvalue-minimisations  :  2208
 total energy-change (2. order) : 0.5494686E-05  (-0.5211967E-04)
 number of electron     176.0000003 magnetization 
 augmentation part       -2.2645668 magnetization 

 Broyden mixing:
  rms(total) = 0.26841E-02    rms(broyden)= 0.26835E-02
  rms(prec ) = 0.31878E-02
  weight for this iteration     100.00

 eigenvalues of (default mixing * dielectric matrix)
  average eigenvalue GAMMA=   1.6339
  3.0555  2.4006  1.8205  1.1572  0.9698  0.9698  1.0638

 Free energy of the ion-electron system (eV)
  ---------------------------------------------------
  alpha Z        PSCENC =       421.37273527
  Ewald energy   TEWEN  =     -9006.32563340
  -Hartree energ DENC   =     -3795.42510996
  -exchange      EXHF   =         0.00000000
  -V(xc)+E(xc)   XCENC  =       479.93869156
  PAW double counting   =     11409.67498672   -11944.46294293
  entropy T*S    EENTRO =        -0.00000000
  eigenvalues    EBANDS =     -1569.55767298
  atomic energy  EATOM  =     13290.28009929
  Solvation  Ediel_sol  =         0.00000000
  ---------------------------------------------------
  free energy    TOTEN  =      -714.50484643 eV

  energy without entropy =     -714.50484643  energy(sigma->0) =     -714.50484643


--------------------------------------------------------------------------------------------------------




--------------------------------------- Iteration      1(  13)  ---------------------------------------


    POTLOK:  cpu time    0.1229: real time    0.1637
    SETDIJ:  cpu time    1.1085: real time    1.1085
     EDDAV:  cpu time    4.8428: real time    4.8431
       DOS:  cpu time    0.0004: real time    0.0004
    CHARGE:  cpu time    0.9190: real time    0.9190
    MIXING:  cpu time    0.0012: real time    0.0012
    --------------------------------------------
      LOOP:  cpu time    6.9947: real time    7.0359

 eigenvalue-minimisations  :  2184
 total energy-change (2. order) : 0.5819101E-04  (-0.6905716E-05)
 number of electron     176.0000003 magnetization 
 augmentation part       -2.2645677 magnetization 

 Broyden mixing:
  rms(total) = 0.75988E-03    rms(broyden)= 0.75895E-03
  rms(prec ) = 0.82074E-03
  weight for this iteration     100.00

 eigenvalues of (default mixing * dielectric matrix)
  average eigenvalue GAMMA=   1.6007
  3.0381  2.4097  1.9910  1.2056  1.2056  1.0256  1.0256  0.9043

 Free energy of the ion-electron system (eV)
  ---------------------------------------------------
  alpha Z        PSCENC =       421.37273527
  Ewald energy   TEWEN  =     -9006.32563340
  -Hartree energ DENC   =     -3795.65262546
  -exchange      EXHF   =         0.00000000
  -V(xc)+E(xc)   XCENC  =       479.95646410
  PAW double counting   =     11408.87438121   -11943.65822611
  entropy T*S    EENTRO =        -0.00000000
  eigenvalues    EBANDS =     -1569.35198314
  atomic energy  EATOM  =     13290.28009929
  Solvation  Ediel_sol  =         0.00000000
  ---------------------------------------------------
  free energy    TOTEN  =      -714.50478824 eV

  energy without entropy =     -714.50478824  energy(sigma->0) =     -714.50478824


--------------------------------------------------------------------------------------------------------




--------------------------------------- Iteration      1(  14)  ---------------------------------------


    POTLOK:  cpu time    0.1244: real time    0.1740
    SETDIJ:  cpu time    1.1090: real time    1.1091
     EDDAV:  cpu time    4.5220: real time    4.5222
       DOS:  cpu time    0.0004: real time    0.0004
    CHARGE:  cpu time    0.9177: real time    0.9177
    MIXING:  cpu time    0.0011: real time    0.0011
    --------------------------------------------
      LOOP:  cpu time    6.6746: real time    6.7245

 eigenvalue-minimisations  :  1944
 total energy-change (2. order) :-0.6539562E-05  (-0.4369714E-06)
 number of electron     176.0000003 magnetization 
 augmentation part       -2.2643736 magnetization 

 Broyden mixing:
  rms(total) = 0.21185E-03    rms(broyden)= 0.20887E-03
  rms(prec ) = 0.25692E-03
  weight for this iteration     100.00

 eigenvalues of (default mixing * dielectric matrix)
  average eigenvalue GAMMA=   1.6823
  2.9889  2.4749  2.4749  1.9131  1.1461  1.1461  0.9325  1.0320  1.0320

 Free energy of the ion-electron system (eV)
  ---------------------------------------------------
  alpha Z        PSCENC =       421.37273527
  Ewald energy   TEWEN  =     -9006.32563340
  -Hartree energ DENC   =     -3795.66375445
  -exchange      EXHF   =         0.00000000
  -V(xc)+E(xc)   XCENC  =       479.95627003
  PAW double counting   =     11408.62244444   -11943.40366126
  entropy T*S    EENTRO =        -0.00000000
  eigenvalues    EBANDS =     -1569.34329469
  atomic energy  EATOM  =     13290.28009929
  Solvation  Ediel_sol  =         0.00000000
  ---------------------------------------------------
  free energy    TOTEN  =      -714.50479478 eV

  energy without entropy =     -714.50479478  energy(sigma->0) =     -714.50479478


--------------------------------------------------------------------------------------------------------




--------------------------------------- Iteration      1(  15)  ---------------------------------------


    POTLOK:  cpu time    0.1244: real time    0.1815
    SETDIJ:  cpu time    1.1087: real time    1.1087
     EDDAV:  cpu time    3.5968: real time    3.5970
       DOS:  cpu time    0.0004: real time    0.0004
    CHARGE:  cpu time    0.9194: real time    0.9194
    MIXING:  cpu time    0.0012: real time    0.0012
    --------------------------------------------
      LOOP:  cpu time    5.7508: real time    5.8081

 eigenvalue-minimisations  :  1280
 total energy-change (2. order) : 0.2870929E-05  (-0.5633191E-07)
 number of electron     176.0000003 magnetization 
 augmentation part       -2.2644056 magnetization 

 Broyden mixing:
  rms(total) = 0.69654E-04    rms(broyden)= 0.60236E-04
  rms(prec ) = 0.76736E-04
  weight for this iteration     100.00
  WARNING: grid for Broyden might be to small

 eigenvalues of (default mixing * dielectric matrix)
  average eigenvalue GAMMA=   1.6562
  3.1554  2.7794  2.4411  1.8522  1.2523  1.1134  1.1134  0.9934  0.9308  0.9308

 Free energy of the ion-electron system (eV)
  ---------------------------------------------------
  alpha Z        PSCENC =       421.37273527
  Ewald energy   TEWEN  =     -9006.32563340
  -Hartree energ DENC   =     -3795.65843184
  -exchange      EXHF   =         0.00000000
  -V(xc)+E(xc)   XCENC  =       479.95613599
  PAW double counting   =     11408.68008620   -11943.45964301
  entropy T*S    EENTRO =        -0.00000000
  eigenvalues    EBANDS =     -1569.35014040
  atomic energy  EATOM  =     13290.28009929
  Solvation  Ediel_sol  =         0.00000000
  ---------------------------------------------------
  free energy    TOTEN  =      -714.50479191 eV

  energy without entropy =     -714.50479191  energy(sigma->0) =     -714.50479191


--------------------------------------------------------------------------------------------------------




--------------------------------------- Iteration      1(  16)  ---------------------------------------


    POTLOK:  cpu time    0.1246: real time    0.1793
    SETDIJ:  cpu time    1.1109: real time    1.1109
     EDDAV:  cpu time    3.6130: real time    3.6132
       DOS:  cpu time    0.0004: real time    0.0004
    CHARGE:  cpu time    0.9224: real time    0.9224
    MIXING:  cpu time    0.0012: real time    0.0012
    --------------------------------------------
      LOOP:  cpu time    5.7725: real time    5.8274

 eigenvalue-minimisations  :  1288
 total energy-change (2. order) :-0.1570611E-05  (-0.1338986E-07)
 number of electron     176.0000003 magnetization 
 augmentation part       -2.2643980 magnetization 

 Broyden mixing:
  rms(total) = 0.46459E-04    rms(broyden)= 0.30611E-04
  rms(prec ) = 0.36665E-04
  weight for this iteration     100.00
  WARNING: grid for Broyden might be to small

 eigenvalues of (default mixing * dielectric matrix)
  average eigenvalue GAMMA=   1.6763
  2.9909  2.9909  2.4933  1.8108  1.8108  0.9343  0.9964  1.0341  1.0341  1.1721
  1.1721

 Free energy of the ion-electron system (eV)
  ---------------------------------------------------
  alpha Z        PSCENC =       421.37273527
  Ewald energy   TEWEN  =     -9006.32563340
  -Hartree energ DENC   =     -3795.66064384
  -exchange      EXHF   =         0.00000000
  -V(xc)+E(xc)   XCENC  =       479.95650515
  PAW double counting   =     11408.60908621   -11943.38873603
  entropy T*S    EENTRO =        -0.00000000
  eigenvalues    EBANDS =     -1569.34820612
  atomic energy  EATOM  =     13290.28009929
  Solvation  Ediel_sol  =         0.00000000
  ---------------------------------------------------
  free energy    TOTEN  =      -714.50479348 eV

  energy without entropy =     -714.50479348  energy(sigma->0) =     -714.50479348


--------------------------------------------------------------------------------------------------------




--------------------------------------- Iteration      1(  17)  ---------------------------------------


    POTLOK:  cpu time    0.1424: real time    0.1512
    SETDIJ:  cpu time    1.1076: real time    1.1076
     EDDAV:  cpu time    3.4211: real time    3.4213
       DOS:  cpu time    0.0003: real time    0.0003
    --------------------------------------------
      LOOP:  cpu time    4.6714: real time    4.6804

 eigenvalue-minimisations  :  1160
 total energy-change (2. order) : 0.5712373E-06  (-0.4199315E-08)
 number of electron     176.0000003 magnetization 
 augmentation part       -2.2643980 magnetization 

 Free energy of the ion-electron system (eV)
  ---------------------------------------------------
  alpha Z        PSCENC =       421.37273527
  Ewald energy   TEWEN  =     -9006.32563340
  -Hartree energ DENC   =     -3795.66282827
  -exchange      EXHF   =         0.00000000
  -V(xc)+E(xc)   XCENC  =       479.95659814
  PAW double counting   =     11408.61055729   -11943.39004918
  entropy T*S    EENTRO =        -0.00000000
  eigenvalues    EBANDS =     -1569.34627204
  atomic energy  EATOM  =     13290.28009929
  Solvation  Ediel_sol  =         0.00000000
  ---------------------------------------------------
  free energy    TOTEN  =      -714.50479291 eV

  energy without entropy =     -714.50479291  energy(sigma->0) =     -714.50479291


--------------------------------------------------------------------------------------------------------




 average (electrostatic) potential at core
  the test charge radii are     1.1312  1.1541  1.0178
  (the norm of the test charge is              1.0000)
       1 -55.7024       2 -55.7024       3 -55.7024       4 -55.7024       5-102.1932
       6-102.1932       7-102.1932       8-102.1932       9 -69.3943      10 -69.3943
      11 -69.3943      12 -69.3943      13 -69.2243      14 -69.2243      15 -69.2243
      16 -69.2243      17 -69.2243      18 -69.2243      19 -69.2243      20 -69.2243



 E-fermi :  -0.0900     XC(G=0):  -7.7867     alpha+bet : -6.6106


 k-point     1 :       0.0000    0.0000    0.0000
  band No.  band energies     occupation 
      1     -21.2190      2.00000
      2     -21.2176      2.00000
      3     -21.2167      2.00000
      4     -21.2158      2.00000
      5     -16.9716      2.00000
      6     -16.9600      2.00000
      7     -16.9327      2.00000
      8     -16.9326      2.00000
      9     -16.9021      2.00000
     10     -16.8892      2.00000
     11     -16.8889      2.00000
     12     -16.8875      2.00000
     13     -16.8487      2.00000
     14     -16.8484      2.00000
     15     -16.8483      2.00000
     16     -16.8481      2.00000
     17     -16.8320      2.00000
     18     -16.8320      2.00000
     19     -16.8310      2.00000
     20     -16.8309      2.00000
     21     -16.8270      2.00000
     22     -16.8267      2.00000
     23     -16.8260      2.00000
     24     -16.8255      2.00000
     25     -14.5671      2.00000
     26     -14.4415      2.00000
     27     -14.4359      2.00000
     28     -14.3637      2.00000
     29     -14.2877      2.00000
     30     -14.1863      2.00000
     31     -14.1752      2.00000
     32     -14.1731      2.00000
     33     -14.1648      2.00000
     34     -14.0634      2.00000
     35     -14.0145      2.00000
     36     -14.0034      2.00000
     37      -8.4430      2.00000
     38      -7.8855      2.00000
     39      -7.7315      2.00000
     40      -7.6426      2.00000
     41      -7.6244      2.00000
     42      -7.6164      2.00000
     43      -7.6076      2.00000
     44      -7.6055      2.00000
     45      -7.5897      2.00000
     46      -7.5808      2.00000
     47      -7.5795      2.00000
     48      -7.5770      2.00000
     49      -7.5765      2.00000
     50      -7.5653      2.00000
     51      -7.5616      2.00000
     52      -7.0587      2.00000
     53      -3.6734      2.00000
     54      -3.5758      2.00000
     55      -3.3391      2.00000
     56      -3.3308      2.00000
     57      -3.1817      2.00000
     58      -3.1255      2.00000
     59      -2.3050      2.00000
     60      -2.1655      2.00000
     61      -2.1582      2.00000
     62      -2.1555      2.00000
     63      -2.1320      2.00000
     64      -2.0084      2.00000
     65      -1.9887      2.00000
     66      -1.8607      2.00000
     67      -1.7984      2.00000
     68      -1.7785      2.00000
     69      -1.7676      2.00000
     70      -1.7450      2.00000
     71      -1.7345      2.00000
     72      -1.6526      2.00000
     73      -1.6148      2.00000
     74      -1.6147      2.00000
     75      -1.5857      2.00000
     76      -1.5530      2.00000
     77      -1.5385      2.00000
     78      -1.4994      2.00000
     79      -1.4786      2.00000
     80      -1.4325      2.00000
     81      -1.3661      2.00000
     82      -1.3154      2.00000
     83      -1.2826      2.00000
     84      -1.2702      2.00000
     85      -1.1590      2.00000
     86      -1.0374      2.00000
     87      -0.7885      2.00000
     88      -0.1733      2.00000
     89       2.0768      0.00000
     90       2.2507      0.00000
     91       2.3685      0.00000
     92       2.6357      0.00000
     93       2.6805      0.00000
     94       3.3029      0.00000
     95       4.4226      0.00000
     96       4.8174      0.00000
     97       4.9860      0.00000
     98       5.2736      0.00000
     99       5.4104      0.00000
    100       5.4943      0.00000
    101       5.6504      0.00000
    102       5.8770      0.00000
    103       5.9678      0.00000
    104       6.0505      0.00000
    105       6.0659      0.00000
    106       6.0673      0.00000
    107       6.2705      0.00000
    108       6.3192      0.00000
    109       6.3222      0.00000
    110       6.4401      0.00000
    111       6.5223      0.00000
    112       6.5490      0.00000

 k-point     2 :       0.3333    0.0000    0.0000
  band No.  band energies     occupation 
      1     -21.2183      2.00000
      2     -21.2172      2.00000
      3     -21.2170      2.00000
      4     -21.2162      2.00000
      5     -16.9686      2.00000
      6     -16.9628      2.00000
      7     -16.9221      2.00000
      8     -16.9219      2.00000
      9     -16.9004      2.00000
     10     -16.9003      2.00000
     11     -16.8980      2.00000
     12     -16.8910      2.00000
     13     -16.8488      2.00000
     14     -16.8485      2.00000
     15     -16.8481      2.00000
     16     -16.8480      2.00000
     17     -16.8320      2.00000
     18     -16.8320      2.00000
     19     -16.8310      2.00000
     20     -16.8310      2.00000
     21     -16.8268      2.00000
     22     -16.8266      2.00000
     23     -16.8259      2.00000
     24     -16.8255      2.00000
     25     -14.5304      2.00000
     26     -14.4449      2.00000
     27     -14.4392      2.00000
     28     -14.4278      2.00000
     29     -14.2608      2.00000
     30     -14.2046      2.00000
     31     -14.1350      2.00000
     32     -14.1343      2.00000
     33     -14.1247      2.00000
     34     -14.0810      2.00000
     35     -14.0549      2.00000
     36     -14.0440      2.00000
     37      -8.2855      2.00000
     38      -7.9360      2.00000
     39      -7.7383      2.00000
     40      -7.6291      2.00000
     41      -7.6275      2.00000
     42      -7.6074      2.00000
     43      -7.6053      2.00000
     44      -7.6012      2.00000
     45      -7.5918      2.00000
     46      -7.5835      2.00000
     47      -7.5784      2.00000
     48      -7.5769      2.00000
     49      -7.5734      2.00000
     50      -7.5715      2.00000
     51      -7.5453      2.00000
     52      -7.2879      2.00000
     53      -3.6457      2.00000
     54      -3.5926      2.00000
     55      -3.0832      2.00000
     56      -2.9331      2.00000
     57      -2.8730      2.00000
     58      -2.8294      2.00000
     59      -2.4710      2.00000
     60      -2.3615      2.00000
     61      -2.2425      2.00000
     62      -2.2034      2.00000
     63      -2.1721      2.00000
     64      -2.1692      2.00000
     65      -2.1073      2.00000
     66      -2.0262      2.00000
     67      -1.9215      2.00000
     68      -1.8776      2.00000
     69      -1.8310      2.00000
     70      -1.8122      2.00000
     71      -1.7354      2.00000
     72      -1.7085      2.00000
     73      -1.5801      2.00000
     74      -1.5551      2.00000
     75      -1.5548      2.00000
     76      -1.5496      2.00000
     77      -1.5252      2.00000
     78      -1.4966      2.00000
     79      -1.4235      2.00000
     80      -1.4197      2.00000
     81      -1.4193      2.00000
     82      -1.3600      2.00000
     83      -1.3410      2.00000
     84      -1.3321      2.00000
     85      -1.1762      2.00000
     86      -1.1258      2.00000
     87      -0.9676      2.00000
     88      -0.6153      2.00000
     89       2.7909      0.00000
     90       2.8231      0.00000
     91       2.9309      0.00000
     92       3.0307      0.00000
     93       3.2861      0.00000
     94       3.3750      0.00000
     95       4.1713      0.00000
     96       4.3151      0.00000
     97       4.4915      0.00000
     98       4.4963      0.00000
     99       5.1367      0.00000
    100       5.6485      0.00000
    101       5.7696      0.00000
    102       5.8456      0.00000
    103       5.8847      0.00000
    104       5.9505      0.00000
    105       6.1875      0.00000
    106       6.2323      0.00000
    107       6.2494      0.00000
    108       6.2892      0.00000
    109       6.4531      0.00000
    110       6.4782      0.00000
    111       6.5453      0.00000
    112       6.6488      0.00000

 k-point     3 :       0.0000    0.5000    0.0000
  band No.  band energies     occupation 
      1     -21.2182      2.00000
      2     -21.2182      2.00000
      3     -21.2162      2.00000
      4     -21.2162      2.00000
      5     -16.9373      2.00000
      6     -16.9373      2.00000
      7     -16.9327      2.00000
      8     -16.9327      2.00000
      9     -16.9243      2.00000
     10     -16.9243      2.00000
     11     -16.8891      2.00000
     12     -16.8891      2.00000
     13     -16.8486      2.00000
     14     -16.8486      2.00000
     15     -16.8482      2.00000
     16     -16.8482      2.00000
     17     -16.8315      2.00000
     18     -16.8315      2.00000
     19     -16.8314      2.00000
     20     -16.8314      2.00000
     21     -16.8265      2.00000
     22     -16.8265      2.00000
     23     -16.8259      2.00000
     24     -16.8259      2.00000
     25     -14.5253      2.00000
     26     -14.5253      2.00000
     27     -14.3991      2.00000
     28     -14.3991      2.00000
     29     -14.1808      2.00000
     30     -14.1808      2.00000
     31     -14.1772      2.00000
     32     -14.1772      2.00000
     33     -14.1455      2.00000
     34     -14.1455      2.00000
     35     -14.0087      2.00000
     36     -14.0087      2.00000
     37      -8.1863      2.00000
     38      -8.1863      2.00000
     39      -7.6219      2.00000
     40      -7.6219      2.00000
     41      -7.6142      2.00000
     42      -7.6142      2.00000
     43      -7.5968      2.00000
     44      -7.5968      2.00000
     45      -7.5860      2.00000
     46      -7.5860      2.00000
     47      -7.5836      2.00000
     48      -7.5836      2.00000
     49      -7.5719      2.00000
     50      -7.5719      2.00000
     51      -7.4397      2.00000
     52      -7.4397      2.00000
     53      -3.2683      2.00000
     54      -3.2683      2.00000
     55      -3.2656      2.00000
     56      -3.2656      2.00000
     57      -2.8020      2.00000
     58      -2.8020      2.00000
     59      -2.7436      2.00000
     60      -2.7436      2.00000
     61      -2.1951      2.00000
     62      -2.1951      2.00000
     63      -2.0842      2.00000
     64      -2.0842      2.00000
     65      -2.0271      2.00000
     66      -2.0271      2.00000
     67      -1.7778      2.00000
     68      -1.7778      2.00000
     69      -1.7443      2.00000
     70      -1.7443      2.00000
     71      -1.7203      2.00000
     72      -1.7203      2.00000
     73      -1.6372      2.00000
     74      -1.6372      2.00000
     75      -1.5735      2.00000
     76      -1.5735      2.00000
     77      -1.5413      2.00000
     78      -1.5413      2.00000
     79      -1.4710      2.00000
     80      -1.4710      2.00000
     81      -1.3557      2.00000
     82      -1.3557      2.00000
     83      -1.3042      2.00000
     84      -1.3042      2.00000
     85      -1.1722      2.00000
     86      -1.1722      2.00000
     87      -0.6270      2.00000
     88      -0.6270      2.00000
     89       2.2681      0.00000
     90       2.2681      0.00000
     91       2.4503      0.00000
     92       2.4503      0.00000
     93       4.0533      0.00000
     94       4.0533      0.00000
     95       4.5379      0.00000
     96       4.5379      0.00000
     97       5.1434      0.00000
     98       5.1434      0.00000
     99       5.1589      0.00000
    100       5.1589      0.00000
    101       5.1981      0.00000
    102       5.1981      0.00000
    103       5.8542      0.00000
    104       5.8542      0.00000
    105       6.0703      0.00000
    106       6.0703      0.00000
    107       6.2335      0.00000
    108       6.2335      0.00000
    109       6.5187      0.00000
    110       6.5345      0.00000
    111       6.5446      0.00000
    112       6.5892      0.00000

 k-point     4 :       0.3333    0.5000    0.0000
  band No.  band energies     occupation 
      1     -21.2177      2.00000
      2     -21.2177      2.00000
      3     -21.2167      2.00000
      4     -21.2167      2.00000
      5     -16.9340      2.00000
      6     -16.9340      2.00000
      7     -16.9276      2.00000
      8     -16.9276      2.00000
      9     -16.9219      2.00000
     10     -16.9219      2.00000
     11     -16.9002      2.00000
     12     -16.9002      2.00000
     13     -16.8485      2.00000
     14     -16.8485      2.00000
     15     -16.8483      2.00000
     16     -16.8483      2.00000
     17     -16.8316      2.00000
     18     -16.8316      2.00000
     19     -16.8315      2.00000
     20     -16.8315      2.00000
     21     -16.8264      2.00000
     22     -16.8264      2.00000
     23     -16.8262      2.00000
     24     -16.8262      2.00000
     25     -14.4979      2.00000
     26     -14.4979      2.00000
     27     -14.4359      2.00000
     28     -14.4359      2.00000
     29     -14.1698      2.00000
     30     -14.1698      2.00000
     31     -14.1608      2.00000
     32     -14.1608      2.00000
     33     -14.1257      2.00000
     34     -14.1257      2.00000
     35     -14.0491      2.00000
     36     -14.0491      2.00000
     37      -8.0272      2.00000
     38      -8.0272      2.00000
     39      -7.6805      2.00000
     40      -7.6805      2.00000
     41      -7.6129      2.00000
     42      -7.6129      2.00000
     43      -7.6119      2.00000
     44      -7.6119      2.00000
     45      -7.5930      2.00000
     46      -7.5930      2.00000
     47      -7.5787      2.00000
[...]
     60      -2.6839      2.00000
     61      -2.4076      2.00000
     62      -2.4076      2.00000
     63      -2.2432      2.00000
     64      -2.2432      2.00000
     65      -1.9505      2.00000
     66      -1.9505      2.00000
     67      -1.8968      2.00000
     68      -1.8968      2.00000
     69      -1.8335      2.00000
     70      -1.8335      2.00000
     71      -1.7701      2.00000
     72      -1.7701      2.00000
     73      -1.5993      2.00000
     74      -1.5993      2.00000
     75      -1.5445      2.00000
     76      -1.5445      2.00000
     77      -1.5128      2.00000
     78      -1.5128      2.00000
     79      -1.4850      2.00000
     80      -1.4850      2.00000
     81      -1.3865      2.00000
     82      -1.3865      2.00000
     83      -1.3036      2.00000
     84      -1.3036      2.00000
     85      -1.2302      2.00000
     86      -1.2302      2.00000
     87      -1.0808      2.00000
     88      -1.0808      2.00000
     89       3.0472      0.00000
     90       3.0472      0.00000
     91       3.1183      0.00000
     92       3.1183      0.00000
     93       4.1606      0.00000
     94       4.1606      0.00000
     95       4.3696      0.00000
     96       4.3696      0.00000
     97       4.4012      0.00000
     98       4.4012      0.00000
     99       4.4814      0.00000
    100       4.4814      0.00000
    101       5.5421      0.00000
    102       5.5421      0.00000
    103       5.9232      0.00000
    104       5.9232      0.00000
    105       6.0310      0.00000
    106       6.0310      0.00000
    107       6.3815      0.00000
    108       6.3815      0.00000
    109       6.4035      0.00000
    110       6.4035      0.00000
    111       6.4693      0.00000
    112       6.4693      0.00000

 k-point     8 :       0.3333    0.5000    0.3333
  band No.  band energies     occupation 
      1     -21.2175      2.00000
      2     -21.2175      2.00000
      3     -21.2169      2.00000
      4     -21.2169      2.00000
      5     -16.9363      2.00000
      6     -16.9363      2.00000
      7     -16.9321      2.00000
      8     -16.9321      2.00000
      9     -16.9127      2.00000
     10     -16.9127      2.00000
     11     -16.9029      2.00000
     12     -16.9029      2.00000
     13     -16.8484      2.00000
     14     -16.8484      2.00000
     15     -16.8484      2.00000
     16     -16.8484      2.00000
     17     -16.8316      2.00000
     18     -16.8316      2.00000
     19     -16.8315      2.00000
     20     -16.8315      2.00000
     21     -16.8263      2.00000
     22     -16.8263      2.00000
     23     -16.8262      2.00000
     24     -16.8262      2.00000
     25     -14.4779      2.00000
     26     -14.4779      2.00000
     27     -14.4440      2.00000
     28     -14.4440      2.00000
     29     -14.1791      2.00000
     30     -14.1791      2.00000
     31     -14.1643      2.00000
     32     -14.1643      2.00000
     33     -14.1067      2.00000
     34     -14.1067      2.00000
     35     -14.0714      2.00000
     36     -14.0714      2.00000
     37      -7.9304      2.00000
     38      -7.9304      2.00000
     39      -7.7505      2.00000
     40      -7.7505      2.00000
     41      -7.6137      2.00000
     42      -7.6137      2.00000
     43      -7.6008      2.00000
     44      -7.6008      2.00000
     45      -7.5903      2.00000
     46      -7.5903      2.00000
     47      -7.5849      2.00000
     48      -7.5849      2.00000
     49      -7.5769      2.00000
     50      -7.5769      2.00000
     51      -7.5685      2.00000
     52      -7.5685      2.00000
     53      -3.2091      2.00000
     54      -3.2091      2.00000
     55      -2.9502      2.00000
     56      -2.9502      2.00000
     57      -2.8494      2.00000
     58      -2.8494      2.00000
     59      -2.7102      2.00000
     60      -2.7102      2.00000
     61      -2.3740      2.00000
     62      -2.3740      2.00000
     63      -2.2284      2.00000
     64      -2.2284      2.00000
     65      -1.9125      2.00000
     66      -1.9125      2.00000
     67      -1.8571      2.00000
     68      -1.8571      2.00000
     69      -1.7902      2.00000
     70      -1.7902      2.00000
     71      -1.7106      2.00000
     72      -1.7106      2.00000
     73      -1.6304      2.00000
     74      -1.6304      2.00000
     75      -1.5914      2.00000
     76      -1.5914      2.00000
     77      -1.5200      2.00000
     78      -1.5200      2.00000
     79      -1.4589      2.00000
     80      -1.4589      2.00000
     81      -1.4214      2.00000
     82      -1.4214      2.00000
     83      -1.3575      2.00000
     84      -1.3575      2.00000
     85      -1.1574      2.00000
     86      -1.1574      2.00000
     87      -0.9839      2.00000
     88      -0.9839      2.00000
     89       2.5722      0.00000
     90       2.5722      0.00000
     91       3.2759      0.00000
     92       3.2759      0.00000
     93       4.1963      0.00000
     94       4.1963      0.00000
     95       4.3159      0.00000
     96       4.3159      0.00000
     97       4.4090      0.00000
     98       4.4090      0.00000
     99       4.9320      0.00000
    100       4.9320      0.00000
    101       5.7465      0.00000
    102       5.7465      0.00000
    103       6.0124      0.00000
    104       6.0124      0.00000
    105       6.1612      0.00000
    106       6.1612      0.00000
    107       6.3355      0.00000
    108       6.3355      0.00000
    109       6.4328      0.00000
    110       6.4330      0.00000
    111       6.5458      0.00000
    112       6.5533      0.00000


--------------------------------------------------------------------------------------------------------


 soft charge-density along one line, spin component           1
         0         1         2         3         4         5         6         7         8         9
 total charge-density along one line

 pseudopotential strength for first ion, spin component:           1
 18.158  -4.754   0.000   0.000  -0.002  -0.000  -0.000   0.003
 -4.754   1.253  -0.000  -0.000   0.001   0.000   0.000  -0.001
  0.000  -0.000   2.343   0.000   0.000  -2.819  -0.000  -0.000
  0.000  -0.000   0.000   2.342  -0.000  -0.000  -2.817   0.001
 -0.002   0.001   0.000  -0.000   2.342  -0.000   0.001  -2.817
 -0.000   0.000  -2.819  -0.000  -0.000   3.365   0.000   0.000
 -0.000   0.000  -0.000  -2.817   0.001   0.000   3.362  -0.001
  0.003  -0.001  -0.000   0.001  -2.817   0.000  -0.001   3.362
  0.000  -0.000  -0.001   0.000  -0.000   0.001  -0.000   0.000
  0.000  -0.000   0.001  -0.000   0.000  -0.002   0.000  -0.000
 -0.000   0.000  -0.000  -0.002   0.001   0.000   0.002  -0.001
 -0.000   0.000   0.000  -0.001   0.001  -0.000   0.001  -0.001
 -0.001   0.000  -0.000  -0.000  -0.002   0.000   0.000   0.002
 total augmentation occupancy for first ion, spin component:           1
  1.908  -0.145   0.000  -0.000  -0.001  -0.000   0.000  -0.001   0.000   0.000  -0.000  -0.001  -0.001
 -0.145   0.104  -0.000   0.000  -0.007   0.000  -0.001   0.004   0.000   0.000   0.002   0.001   0.002
  0.000  -0.000   2.016   0.000   0.000   0.003  -0.000  -0.000  -0.002   0.003   0.000   0.000  -0.000
 -0.000   0.000   0.000   2.015  -0.001  -0.000   0.002  -0.001  -0.000  -0.000  -0.004  -0.002  -0.000
 -0.001  -0.007   0.000  -0.001   2.015   0.000  -0.001   0.002   0.000   0.000   0.002   0.002  -0.003
 -0.000   0.000   0.003  -0.000   0.000   0.006  -0.000   0.000   0.000  -0.002   0.000   0.000   0.000
  0.000  -0.001  -0.000   0.002  -0.001  -0.000   0.007   0.000   0.000   0.000   0.003  -0.000   0.000
 -0.001   0.004  -0.000  -0.001   0.002   0.000   0.000   0.007   0.000   0.000  -0.001  -0.001   0.001
  0.000   0.000  -0.002  -0.000   0.000   0.000   0.000   0.000   0.005   0.000   0.000   0.000  -0.000
  0.000   0.000   0.003  -0.000   0.000  -0.002   0.000   0.000   0.000   0.004   0.000   0.000   0.000
 -0.000   0.002   0.000  -0.004   0.002   0.000   0.003  -0.001   0.000   0.000   0.004  -0.002  -0.001
 -0.001   0.001   0.000  -0.002   0.002   0.000  -0.000  -0.001   0.000   0.000  -0.002   0.004   0.001
 -0.001   0.002  -0.000  -0.000  -0.003   0.000   0.000   0.001  -0.000   0.000  -0.001   0.001   0.003


------------------------ aborting loop because EDIFF is reached ----------------------------------------





 total charge     

# of ion       s       p       d       tot
------------------------------------------
    1        1.784   4.719   0.015   6.517
    2        1.784   4.719   0.015   6.517
    3        1.784   4.719   0.015   6.517
    4        1.784   4.719   0.015   6.517
    5        1.550   0.395   9.829  11.774
    6        1.550   0.395   9.829  11.773
    7        1.550   0.395   9.829  11.773
    8        1.550   0.395   9.829  11.774
    9        1.615   3.285   0.007   4.907
   10        1.615   3.285   0.007   4.907
   11        1.615   3.285   0.007   4.907
   12        1.615   3.285   0.007   4.907
   13        1.613   3.260   0.004   4.877
   14        1.611   3.282   0.004   4.897
   15        1.611   3.282   0.004   4.897
   16        1.613   3.260   0.004   4.877
   17        1.613   3.260   0.004   4.877
   18        1.611   3.282   0.004   4.897
   19        1.613   3.260   0.004   4.877
   20        1.611   3.282   0.004   4.897
--------------------------------------------------
tot         32.693  59.759  39.433 131.885

    CHARGE:  cpu time    0.1415: real time    0.1415
    FORLOC:  cpu time    0.0040: real time    0.0040
    FORNL :  cpu time    0.6133: real time    0.6133
    STRESS:  cpu time   13.7854: real time   13.7861
    FORCOR:  cpu time    0.1030: real time    0.1030
    FORHAR:  cpu time    0.0112: real time    0.0112
    MIXING:  cpu time    0.0011: real time    0.0011
    OFIELD:  cpu time    0.0000: real time    0.0000

  FORCE on cell =-STRESS in cart. coord.  units (eV):
  Direction    XX          YY          ZZ          XY          YZ          ZX
  --------------------------------------------------------------------------------------
  Alpha Z   421.37274   421.37274   421.37274
  Ewald   -3114.06695 -2783.59410 -3108.68685     0.00000    -0.00000     0.00000
  Hartree  1195.36113  1412.93331  1187.36857    -0.00000    -0.00000    -0.00000
  E(xc)    -737.83624  -737.34751  -737.79321     0.00000     0.00000    -0.03796
  Local   -1318.26725 -1868.09097 -1314.67359     0.00000     0.00000     0.00000
  n-local   893.11515   899.27371   893.31053    -0.00001     0.00000     0.19384
  augment   407.08790   407.05018   406.80599    -0.00000    -0.00002    -0.00001
  Kinetic  2242.79395  2247.95884  2243.57284     0.00001     0.00000    -1.58212
  Fock        0.00000     0.00000     0.00000     0.00000     0.00000     0.00000
  -------------------------------------------------------------------------------------
  Total     -10.43958    -0.44380    -8.72299     0.00000     0.00000    -0.00000
  in kB     -19.53363    -0.83040   -16.32168     0.00000     0.00000    -0.00000
  external pressure =      -12.23 kB  Pullay stress =        0.00 kB


 VOLUME and BASIS-vectors are now :
 -----------------------------------------------------------------------------
  energy-cutoff  :      300.00
  volume of cell :      856.27
      direct lattice vectors                 reciprocal lattice vectors
     8.841018478  0.000000000  0.000000000     0.113109140  0.000000000  0.000000000
     0.000000000 11.418694406  0.000000000     0.000000000  0.087575686  0.000000000
     0.000000000  0.000000000  8.481879581     0.000000000  0.000000000  0.117898396

  length of vectors
     8.841018478 11.418694406  8.481879581     0.113109140  0.087575686  0.117898396


 FORCES acting on ions
    electron-ion (+dipol)            ewald-force                    non-local-force                 convergence-correction
 -----------------------------------------------------------------------------------------------
   0.329E+02 -.348E-12 -.843E+01   -.326E+02 -.213E-13 0.840E+01   -.216E+00 0.000E+00 0.296E-01   0.131E-04 -.135E-12 0.365E-04
   -.329E+02 -.623E-12 -.843E+01   0.326E+02 -.107E-13 0.840E+01   0.216E+00 0.000E+00 0.296E-01   -.131E-04 0.144E-12 0.365E-04
   0.329E+02 -.862E-12 0.843E+01   -.326E+02 -.142E-13 -.840E+01   -.216E+00 0.000E+00 -.296E-01   0.131E-04 -.915E-13 -.365E-04
   -.329E+02 -.111E-11 0.843E+01   0.326E+02 -.711E-14 -.840E+01   0.216E+00 0.265E-22 -.296E-01   -.131E-04 0.170E-12 -.365E-04
   0.488E-12 -.804E-13 0.349E-13   -.497E-13 -.568E-13 0.853E-13   0.000E+00 0.000E+00 -.636E-23   0.165E-12 -.211E-12 0.880E-14
   0.919E-12 -.322E-12 0.444E-11   -.338E-13 -.497E-13 -.568E-13   0.000E+00 0.000E+00 -.360E-23   0.235E-12 -.189E-12 0.140E-13
   -.821E-12 -.509E-11 0.202E-11   -.142E-13 0.782E-13 -.853E-13   0.000E+00 0.000E+00 0.948E-23   0.225E-12 0.150E-12 0.382E-13
   0.164E-12 0.106E-11 0.996E-13   -.426E-13 0.121E-12 0.284E-13   0.000E+00 0.000E+00 0.523E-23   0.185E-12 0.180E-12 -.173E-13
   0.243E+00 -.166E-11 0.465E+02   -.105E+00 0.000E+00 -.469E+02   -.130E+00 0.000E+00 0.414E+00   -.944E-05 0.857E-13 -.313E-04
   -.243E+00 -.448E-11 0.465E+02   0.105E+00 -.568E-13 -.469E+02   0.130E+00 0.000E+00 0.414E+00   0.944E-05 -.114E-12 -.313E-04
   0.243E+00 0.134E-12 -.465E+02   -.105E+00 -.142E-13 0.469E+02   -.130E+00 0.132E-22 -.414E+00   -.944E-05 0.796E-13 0.313E-04
   -.243E+00 0.241E-11 -.465E+02   0.105E+00 0.142E-13 0.469E+02   0.130E+00 0.000E+00 -.414E+00   0.944E-05 -.125E-12 0.313E-04
   -.115E+02 0.167E+02 0.178E+02   0.116E+02 -.168E+02 -.179E+02   -.763E-01 0.977E-01 0.106E+00   -.629E-05 0.180E-04 -.277E-05
   0.115E+02 -.167E+02 0.178E+02   -.116E+02 0.168E+02 -.179E+02   0.763E-01 -.977E-01 0.106E+00   0.629E-05 -.180E-04 -.277E-05
   -.115E+02 -.167E+02 -.178E+02   0.116E+02 0.168E+02 0.179E+02   -.763E-01 -.977E-01 -.106E+00   -.629E-05 -.180E-04 0.277E-05
   0.115E+02 0.167E+02 -.178E+02   -.116E+02 -.168E+02 0.179E+02   0.763E-01 0.977E-01 -.106E+00   0.629E-05 0.180E-04 0.277E-05
   -.115E+02 -.167E+02 0.178E+02   0.116E+02 0.168E+02 -.179E+02   -.763E-01 -.977E-01 0.106E+00   -.629E-05 -.180E-04 -.277E-05
   0.115E+02 0.167E+02 0.178E+02   -.116E+02 -.168E+02 -.179E+02   0.763E-01 0.977E-01 0.106E+00   0.629E-05 0.180E-04 -.277E-05
   0.115E+02 -.167E+02 -.178E+02   -.116E+02 0.168E+02 0.179E+02   0.763E-01 -.977E-01 -.106E+00   0.629E-05 -.180E-04 0.277E-05
   -.115E+02 0.167E+02 -.178E+02   0.116E+02 -.168E+02 0.179E+02   -.763E-01 0.977E-01 -.106E+00   -.629E-05 0.180E-04 0.277E-05
 -----------------------------------------------------------------------------------------------
   0.206E-10 -.125E-10 -.759E-11   0.568E-13 0.000E+00 0.497E-13   0.111E-15 -.278E-16 -.555E-16   0.987E-12 -.742E-13 0.122E-12


 POSITION                                       TOTAL-FORCE (eV/Angst)
 -----------------------------------------------------------------------------------
      0.47939      2.85467      4.09877         0.001571      0.000000      0.002745
      3.94112      8.56402      8.33971        -0.001571      0.000000      0.002745
      4.89990      2.85467      0.14217         0.001571      0.000000     -0.002745
      8.36163      8.56402      4.38311        -0.001571     -0.000000     -0.002745
      0.00000      0.00000      0.00000         0.000000      0.000000     -0.000000
      4.42051      0.00000      4.24094         0.000000      0.000000     -0.000000
      4.42051      5.70935      4.24094         0.000000      0.000000     -0.000000
      0.00000      5.70935      0.00000         0.000000      0.000000     -0.000000
      4.65662      8.56402      3.50859         0.006138     -0.000000     -0.013156
      8.60491      2.85467      7.74953        -0.006138      0.000000     -0.013156
      0.23611      8.56402      0.73235         0.006138     -0.000000      0.013156
      4.18440      2.85467      4.97329        -0.006138     -0.000000      0.013156
      2.46679      5.27617      1.86230         0.000548     -0.004525     -0.001082
      1.95372      6.14252      6.10324        -0.000548      0.004525     -0.001082
      6.88730      0.43318      2.37864         0.000548      0.004525      0.001082
      6.37423     10.98552      6.61958        -0.000548     -0.004525      0.001082
      2.46679      0.43318      1.86230         0.000548      0.004525     -0.001082
      1.95372     10.98552      6.10324        -0.000548     -0.004525     -0.001082
      6.37423      6.14252      6.61958        -0.000548      0.004525      0.001082
      6.88730      5.27617      2.37864         0.000548     -0.004525      0.001082
 -----------------------------------------------------------------------------------
    total drift:                                0.000000     -0.000000     -0.000000


--------------------------------------------------------------------------------------------------------



  FREE ENERGIE OF THE ION-ELECTRON SYSTEM (eV)
  ---------------------------------------------------
  free  energy   TOTEN  =      -714.50479291 eV

  energy  without entropy=     -714.50479291  energy(sigma->0) =     -714.50479291



--------------------------------------------------------------------------------------------------------


    POTLOK:  cpu time    1.2121: real time    1.2122


--------------------------------------------------------------------------------------------------------


 stress matrix after NEB project (eV)
    -10.43958      0.00000     -0.00000
      0.00000     -0.44380      0.00000
      0.00000      0.00000     -8.72299
  FORCES: max atom, RMS     0.014518    0.007276
  FORCE total and by dimension    0.032538    0.013156
  Stress total and by dimension   13.611479   10.439584
     LOOP+:  cpu time  123.3817: real time  123.8225
    4ORBIT:  cpu time    0.0000: real time    0.0000



 total charge     

# of ion       s       p       d       tot
------------------------------------------
    1        1.784   4.719   0.015   6.517
    2        1.784   4.719   0.015   6.517
    3        1.784   4.719   0.015   6.517
    4        1.784   4.719   0.015   6.517
    5        1.550   0.395   9.829  11.774
    6        1.550   0.395   9.829  11.773
    7        1.550   0.395   9.829  11.773
    8        1.550   0.395   9.829  11.774
    9        1.615   3.285   0.007   4.907
   10        1.615   3.285   0.007   4.907
   11        1.615   3.285   0.007   4.907
   12        1.615   3.285   0.007   4.907
   13        1.613   3.260   0.004   4.877
   14        1.611   3.282   0.004   4.897
   15        1.611   3.282   0.004   4.897
   16        1.613   3.260   0.004   4.877
   17        1.613   3.260   0.004   4.877
   18        1.611   3.282   0.004   4.897
   19        1.613   3.260   0.004   4.877
   20        1.611   3.282   0.004   4.897
--------------------------------------------------
tot         32.693  59.759  39.433 131.885


 total amount of memory used by VASP MPI-rank0    43664. kBytes
=======================================================================

   base      :      30000. kBytes
   nonlr-proj:       3140. kBytes
   fftplans  :       4446. kBytes
   grid      :       3667. kBytes
   one-center:         46. kBytes
   wavefun   :       2365. kBytes

  
  
 General timing and accounting informations for this job:
 ========================================================
  
                  Total CPU time used (sec):      129.865
                            User time (sec):      129.069
                          System time (sec):        0.796
                         Elapsed time (sec):      130.438
  
                   Maximum memory used (kb):       83316.
                   Average memory used (kb):           0.
  
                          Minor page faults:        20626
                          Major page faults:            2
                 Voluntary context switches:         1600
