 running on   64 total cores
 distrk:  each k-point on   64 cores,    1 groups
 distr:  one band on    8 cores,    8 groups
 using from now: INCAR     
 vasp.5.4.4.18Apr17-6-g9f103f2a35 (build Jun 29 2021 12:14:42) complex           
 POSCAR found type information on POSCAR  Cs Pb Br
 POSCAR found :  3 types and      20 ions
 scaLAPACK will be used
 LDA part: xc-table for Pade appr. of Perdew
 POSCAR found type information on POSCAR  Cs Pb Br
 POSCAR found :  3 types and      20 ions
 POSCAR, INCAR and KPOINTS ok, starting setup
 FFT: planning ...
 WAVECAR not read
 entering main loop
       N       E                     dE             d eps       ncg     rms          rms(c)
DAV:   1     0.652082513996E+03    0.65208E+03   -0.55932E+04  1856   0.913E+02
DAV:   2    -0.576064870328E+03   -0.12281E+04   -0.11828E+04  2200   0.282E+02
DAV:   3    -0.748713412209E+03   -0.17265E+03   -0.17154E+03  2416   0.126E+02
DAV:   4    -0.754452724822E+03   -0.57393E+01   -0.57208E+01  2144   0.303E+01
DAV:   5    -0.754707652832E+03   -0.25493E+00   -0.25477E+00  2368   0.516E+00    0.684E+00
DAV:   6    -0.714586936115E+03    0.40121E+02   -0.12015E+01  2360   0.295E+01    0.484E+00
DAV:   7    -0.714344978457E+03    0.24196E+00   -0.43514E+00  2304   0.509E+00    0.261E+00
DAV:   8    -0.714453227402E+03   -0.10825E+00   -0.19909E-01  2120   0.179E+00    0.150E+00
DAV:   9    -0.714501183473E+03   -0.47956E-01   -0.10526E-01  2000   0.131E+00    0.338E-01
DAV:  10    -0.714502518142E+03   -0.13347E-02   -0.68926E-03  2640   0.355E-01    0.204E-01
DAV:  11    -0.714504851925E+03   -0.23338E-02   -0.24159E-03  2000   0.197E-01    0.748E-02
DAV:  12    -0.714504846430E+03    0.54947E-05   -0.52120E-04  2208   0.102E-01    0.268E-02
DAV:  13    -0.714504788239E+03    0.58191E-04   -0.69057E-05  2184   0.316E-02    0.760E-03
DAV:  14    -0.714504794779E+03   -0.65396E-05   -0.43697E-06  1944   0.687E-03    0.212E-03
DAV:  15    -0.714504791908E+03    0.28709E-05   -0.56332E-07  1280   0.298E-03    0.697E-04
DAV:  16    -0.714504793478E+03   -0.15706E-05   -0.13390E-07  1288   0.177E-03    0.465E-04
DAV:  17    -0.714504792907E+03    0.57124E-06   -0.41993E-08  1160   0.102E-03
   1 F= -.71450479E+03 E0= -.71450479E+03  d E =-.266539E-33
Application 1866224 resources: utime ~8258s, stime ~77s, Rss ~83316, inblocks ~1328, outblocks ~52656
