<?xml version="1.0" encoding="ISO-8859-1"?>
<modeling>
 <generator>
  <i name="program" type="string">vasp </i>
  <i name="version" type="string">5.4.4.18Apr17-6-g9f103f2a35  </i>
  <i name="subversion" type="string">(build Jun 29 2021 12:14:42) complex            parallel </i>
  <i name="platform" type="string">tx2_gcc-7.3_libsci-18.07_cray-fftw-3.3.8 </i>
  <i name="date" type="string">2021 09 21 </i>
  <i name="time" type="string">08:32:47 </i>
 </generator>
 <incar>
  <i type="string" name="SYSTEM"> CsPbBr3 cubic bulk</i>
  <i type="string" name="PREC">accurate</i>
  <i type="string" name="ALGO"> Normal   ! Electronic minimisation algo</i>
  <i type="logical" name="ADDGRID"> T  </i>
  <i type="int" name="NELM">   200</i>
  <i type="int" name="IBRION">     2</i>
  <i name="EDIFF">      0.00000100</i>
  <i name="EDIFFG">     -0.01000000</i>
  <i type="int" name="NSW">     0</i>
  <i type="int" name="ISIF">     3</i>
  <i type="int" name="ISYM">     2</i>
  <i name="ENCUT">    300.00000000</i>
  <i name="POTIM">      0.50000000</i>
  <i type="string" name="LREAL"> AUTO</i>
  <i type="int" name="ISMEAR">     0</i>
  <i name="SIGMA">      0.01000000</i>
  <i name="PSTRESS">      0.00000000</i>
  <i type="logical" name="LWAVE"> F  </i>
  <i type="logical" name="LCHARG"> F  </i>
  <i type="logical" name="LVHAR"> T  </i>
  <i type="int" name="LORBIT">    10</i>
  <i type="logical" name="LASPH"> T  </i>
  <v type="int" name="KPOINT_BSE">    -1     0     0     0</v>
  <i type="int" name="NELM">   200</i>
  <i type="string" name="METAGGA"> SCAN       ! PBE exchange-correlation</i>
  <i type="logical" name="LASPH"> T  </i>
 </incar>
 <structure name="primitive_cell" >
  <crystal>
   <varray name="basis" >
    <v>       8.84101848       0.00000000       0.00000000 </v>
    <v>       0.00000000      11.41869441       0.00000000 </v>
    <v>       0.00000000       0.00000000       8.48187958 </v>
   </varray>
   <i name="volume">    856.27024142 </i>
   <varray name="rec_basis" >
    <v>       0.11310914       0.00000000       0.00000000 </v>
    <v>       0.00000000       0.08757569       0.00000000 </v>
    <v>       0.00000000       0.00000000       0.11789840 </v>
   </varray>
  </crystal>
  <varray name="positions" >
   <v>       0.05422345       0.25000000       0.48323875 </v>
   <v>      -0.02670607       0.25000000      -0.08634283 </v>
   <v>       0.47329393       0.25000000      -0.41365717 </v>
   <v>      -0.22098391       0.03793578       0.28043752 </v>
   <v>      -0.22098391       0.46206422       0.28043752 </v>
   <v>       0.27901609       0.46206422       0.21956248 </v>
   <v>       0.27901609       0.03793578       0.21956248 </v>
   <v>       0.22098391      -0.46206422      -0.28043752 </v>
   <v>       0.22098391      -0.03793578      -0.28043752 </v>
   <v>      -0.50000000       0.00000000      -0.50000000 </v>
   <v>      -0.50000000      -0.50000000      -0.50000000 </v>
   <v>       0.00000000       0.00000000       0.00000000 </v>
   <v>       0.00000000      -0.50000000       0.00000000 </v>
   <v>      -0.27901609      -0.03793578      -0.21956248 </v>
   <v>      -0.27901609      -0.46206422      -0.21956248 </v>
   <v>      -0.05422345      -0.25000000      -0.48323875 </v>
   <v>      -0.44577655       0.25000000       0.01676125 </v>
   <v>       0.02670607      -0.25000000       0.08634283 </v>
   <v>      -0.47329393      -0.25000000       0.41365717 </v>
   <v>       0.44577655      -0.25000000      -0.01676125 </v>
  </varray>
 </structure>
 <varray name="primitive_index" >
  <v type="int" >        1 </v>
  <v type="int" >       10 </v>
  <v type="int" >       12 </v>
  <v type="int" >       15 </v>
  <v type="int" >       20 </v>
  <v type="int" >       13 </v>
  <v type="int" >       17 </v>
  <v type="int" >       14 </v>
  <v type="int" >       18 </v>
  <v type="int" >        6 </v>
  <v type="int" >        7 </v>
  <v type="int" >        5 </v>
  <v type="int" >        8 </v>
  <v type="int" >       16 </v>
  <v type="int" >       19 </v>
  <v type="int" >        4 </v>
  <v type="int" >        3 </v>
  <v type="int" >       11 </v>
  <v type="int" >        9 </v>
  <v type="int" >        2 </v>
 </varray>
 <kpoints>
  <generation param="Gamma">
   <v type="int" name="divisions">       3        2        3 </v>
   <v name="usershift">      0.00000000       0.00000000       0.00000000 </v>
   <v name="genvec1">      0.33333333       0.00000000       0.00000000 </v>
   <v name="genvec2">      0.00000000       0.50000000       0.00000000 </v>
   <v name="genvec3">      0.00000000       0.00000000       0.33333333 </v>
   <v name="shift">      0.00000000       0.00000000       0.00000000 </v>
  </generation>
  <varray name="kpointlist" >
   <v>       0.00000000       0.00000000       0.00000000 </v>
   <v>       0.33333333       0.00000000       0.00000000 </v>
   <v>       0.00000000       0.50000000       0.00000000 </v>
   <v>       0.33333333       0.50000000       0.00000000 </v>
   <v>       0.00000000       0.00000000       0.33333333 </v>
   <v>       0.33333333       0.00000000       0.33333333 </v>
   <v>       0.00000000       0.50000000       0.33333333 </v>
   <v>       0.33333333       0.50000000       0.33333333 </v>
  </varray>
  <varray name="weights" >
   <v>       0.05555556 </v>
   <v>       0.11111111 </v>
   <v>       0.05555556 </v>
   <v>       0.11111111 </v>
   <v>       0.11111111 </v>
   <v>       0.22222222 </v>
   <v>       0.11111111 </v>
   <v>       0.22222222 </v>
  </varray>
 </kpoints>
 <parameters>
  <separator name="general" >
   <i type="string" name="SYSTEM">CsPbBr3 cubic bulk</i>
   <i type="logical" name="LCOMPAT"> F  </i>
  </separator>
  <separator name="electronic" >
   <i type="string" name="PREC">accura</i>
   <i name="ENMAX">    300.00000000</i>
   <i name="ENAUG">    503.85200000</i>
   <i name="EDIFF">      0.00000100</i>
   <i type="int" name="IALGO">    38</i>
   <i type="int" name="IWAVPR">    10</i>
   <i type="int" name="NBANDS">   112</i>
   <i name="NELECT">    176.00000000</i>
   <i type="int" name="TURBO">     0</i>
   <i type="int" name="IRESTART">     0</i>
   <i type="int" name="NREBOOT">     0</i>
   <i type="int" name="NMIN">     0</i>
   <i name="EREF">      0.00000000</i>
   <separator name="electronic smearing" >
    <i type="int" name="ISMEAR">     0</i>
    <i name="SIGMA">      0.01000000</i>
    <i name="KSPACING">      0.50000000</i>
    <i type="logical" name="KGAMMA"> T  </i>
   </separator>
   <separator name="electronic projectors" >
    <i type="logical" name="LREAL"> T  </i>
    <v name="ROPT">     -0.00025000     -0.00025000     -0.00025000</v>
    <i type="int" name="LMAXPAW">  -100</i>
    <i type="int" name="LMAXMIX">     2</i>
    <i type="logical" name="NLSPLINE"> F  </i>
   </separator>
   <separator name="electronic startup" >
    <i type="int" name="ISTART">     0</i>
    <i type="int" name="ICHARG">     2</i>
    <i type="int" name="INIWAV">     1</i>
   </separator>
   <separator name="electronic spin" >
    <i type="int" name="ISPIN">     1</i>
    <i type="logical" name="LNONCOLLINEAR"> F  </i>
    <v name="MAGMOM">      1.00000000      1.00000000      1.00000000      1.00000000      1.00000000      1.00000000      1.00000000      1.00000000      1.00000000      1.00000000      1.00000000      1.00000000      1.00000000      1.00000000      1.00000000      1.00000000      1.00000000      1.00000000      1.00000000      1.00000000
</v>
    <i name="NUPDOWN">     -1.00000000</i>
    <i type="logical" name="LSORBIT"> F  </i>
    <v name="SAXIS">      0.00000000      0.00000000      1.00000000</v>
    <i type="logical" name="LSPIRAL"> F  </i>
    <v name="QSPIRAL">      0.00000000      0.00000000      0.00000000</v>
    <i type="logical" name="LZEROZ"> F  </i>
   </separator>
   <separator name="electronic exchange-correlation" >
    <i type="logical" name="LASPH"> T  </i>
    <i type="logical" name="LMETAGGA"> F  </i>
   </separator>
   <separator name="electronic convergence" >
    <i type="int" name="NELM">   200</i>
    <i type="int" name="NELMDL">    -5</i>
    <i type="int" name="NELMIN">     2</i>
    <i name="ENINI">    300.00000000</i>
    <separator name="electronic convergence detail" >
     <i type="logical" name="LDIAG"> T  </i>
     <i type="logical" name="LSUBROT"> F  </i>
     <i name="WEIMIN">      0.00000000</i>
     <i name="EBREAK">      0.00000000</i>
     <i name="DEPER">      0.30000000</i>
     <i type="int" name="NRMM">     4</i>
     <i name="TIME">      0.40000000</i>
    </separator>
   </separator>
   <separator name="electronic mixer" >
    <i name="AMIX">      0.40000000</i>
    <i name="BMIX">      1.00000000</i>
    <i name="AMIN">      0.10000000</i>
    <i name="AMIX_MAG">      1.60000000</i>
    <i name="BMIX_MAG">      1.00000000</i>
    <separator name="electronic mixer details" >
     <i type="int" name="IMIX">     4</i>
     <i type="logical" name="MIXFIRST"> F  </i>
     <i type="int" name="MAXMIX">   -45</i>
     <i name="WC">    100.00000000</i>
     <i type="int" name="INIMIX">     1</i>
     <i type="int" name="MIXPRE">     1</i>
     <i type="int" name="MREMOVE">     5</i>
    </separator>
   </separator>
   <separator name="electronic dipolcorrection" >
    <i type="logical" name="LDIPOL"> F  </i>
    <i type="logical" name="LMONO"> F  </i>
    <i type="int" name="IDIPOL">     0</i>
    <i name="EPSILON">      1.00000000</i>
    <v name="DIPOL">   -100.00000000   -100.00000000   -100.00000000</v>
    <i name="EFIELD">      0.00000000</i>
   </separator>
  </separator>
  <separator name="grids" >
   <i type="int" name="NGX">    50</i>
   <i type="int" name="NGY">    70</i>
   <i type="int" name="NGZ">    48</i>
   <i type="int" name="NGXF">   100</i>
   <i type="int" name="NGYF">   140</i>
   <i type="int" name="NGZF">    96</i>
   <i type="logical" name="ADDGRID"> T  </i>
  </separator>
  <separator name="ionic" >
   <i type="int" name="NSW">     0</i>
   <i type="int" name="IBRION">    -1</i>
   <i type="int" name="MDALGO">     0</i>
   <i type="int" name="ISIF">     3</i>
   <i name="PSTRESS">      0.00000000</i>
   <i name="EDIFFG">     -0.01000000</i>
   <i type="int" name="NFREE">     1</i>
   <i name="POTIM">      0.50000000</i>
   <i name="SMASS">     -3.00000000</i>
   <i name="SCALEE">      1.00000000</i>
  </separator>
  <separator name="ionic md" >
   <i name="TEBEG">      0.00010000</i>
   <i name="TEEND">      0.00010000</i>
   <i type="int" name="NBLOCK">     1</i>
   <i type="int" name="KBLOCK">     1</i>
   <i type="int" name="NPACO">   256</i>
   <i name="APACO">     16.00000000</i>
  </separator>
  <separator name="symmetry" >
   <i type="int" name="ISYM">     2</i>
   <i name="SYMPREC">      0.00001000</i>
  </separator>
  <separator name="dos" >
   <i type="int" name="LORBIT">    10</i>
   <v name="RWIGS">     -1.00000000     -1.00000000     -1.00000000</v>
   <i type="int" name="NEDOS">   301</i>
   <i name="EMIN">     10.00000000</i>
   <i name="EMAX">    -10.00000000</i>
   <i name="EFERMI">      0.00000000</i>
  </separator>
  <separator name="writing" >
   <i type="int" name="NWRITE">     2</i>
   <i type="logical" name="LWAVE"> F  </i>
   <i type="logical" name="LDOWNSAMPLE"> F  </i>
   <i type="logical" name="LCHARG"> F  </i>
   <i type="logical" name="LPARD"> F  </i>
   <i type="logical" name="LVTOT"> F  </i>
   <i type="logical" name="LVHAR"> T  </i>
   <i type="logical" name="LELF"> F  </i>
   <i type="logical" name="LOPTICS"> F  </i>
   <v name="STM">      0.00000000      0.00000000      0.00000000      0.00000000      0.00000000      0.00000000      0.00000000</v>
  </separator>
  <separator name="performance" >
   <i type="int" name="NPAR">     8</i>
   <i type="int" name="NSIM">     4</i>
   <i type="int" name="NBLK">    -1</i>
   <i type="logical" name="LPLANE"> T  </i>
   <i type="logical" name="LSCALAPACK"> T  </i>
   <i type="logical" name="LSCAAWARE"> F  </i>
   <i type="logical" name="LSCALU"> F  </i>
   <i type="logical" name="LASYNC"> F  </i>
   <i type="logical" name="LORBITALREAL"> F  </i>
  </separator>
  <separator name="miscellaneous" >
   <i type="int" name="IDIOT">     3</i>
   <i type="int" name="ISPECIAL">     0</i>
   <i type="logical" name="LMUSIC"> F  </i>
   <v name="POMASS">    132.90000000    207.20000000     79.90400000</v>
   <v name="DARWINR">      0.00000000      0.00000000      0.00000000</v>
   <v name="DARWINV">      1.00000000      1.00000000      1.00000000</v>
   <i type="logical" name="LCORR"> T  </i>
  </separator>
  <i type="logical" name="GGA_COMPAT"> T  </i>
  <i type="logical" name="LBERRY"> F  </i>
  <i type="int" name="ICORELEVEL">     0</i>
  <i type="logical" name="LDAU"> F  </i>
  <i type="int" name="I_CONSTRAINED_M">     0</i>
  <separator name="electronic exchange-correlation" >
   <i type="string" name="GGA">--</i>
   <i type="int" name="VOSKOWN">     0</i>
   <i type="logical" name="LHFCALC"> F  </i>
   <i type="string" name="PRECFOCK"></i>
   <i type="logical" name="LSYMGRAD"> F  </i>
   <i type="logical" name="LHFONE"> F  </i>
   <i type="logical" name="LRHFCALC"> F  </i>
   <i type="logical" name="LTHOMAS"> F  </i>
   <i type="logical" name="LMODELHF"> F  </i>
   <i name="ENCUT4O">     -1.00000000</i>
   <i type="int" name="EXXOEP">     0</i>
   <i type="int" name="FOURORBIT">     0</i>
   <i name="AEXX">      0.00000000</i>
   <i name="HFALPHA">      0.00000000</i>
   <i name="MCALPHA">      0.00000000</i>
   <i name="ALDAX">      1.00000000</i>
   <i name="AGGAX">      1.00000000</i>
   <i name="ALDAC">      1.00000000</i>
   <i name="AGGAC">      1.00000000</i>
   <i type="int" name="NKREDX">     1</i>
   <i type="int" name="NKREDY">     1</i>
   <i type="int" name="NKREDZ">     1</i>
   <i type="logical" name="SHIFTRED"> F  </i>
   <i type="logical" name="ODDONLY"> F  </i>
   <i type="logical" name="EVENONLY"> F  </i>
   <i type="int" name="LMAXFOCK">     0</i>
   <i type="int" name="NMAXFOCKAE">     0</i>
   <i type="logical" name="LFOCKAEDFT"> F  </i>
   <i name="HFSCREEN">      0.00000000</i>
   <i name="HFSCREENC">      0.00000000</i>
   <i type="int" name="NBANDSGWLOW">     0</i>
  </separator>
  <separator name="vdW DFT" >
   <i type="logical" name="LUSE_VDW"> F  </i>
   <i name="Zab_VDW">     -0.84910000</i>
   <i name="PARAM1">      0.12340000</i>
   <i name="PARAM2">      1.00000000</i>
   <i name="PARAM3">      0.00000000</i>
  </separator>
  <separator name="model GW" >
   <i type="int" name="MODEL_GW">     0</i>
   <i name="MODEL_EPS0">     25.68810724</i>
   <i name="MODEL_ALPHA">      1.00000000</i>
  </separator>
  <separator name="linear response parameters" >
   <i type="logical" name="LEPSILON"> F  </i>
   <i type="logical" name="LRPA"> F  </i>
   <i type="logical" name="LNABLA"> F  </i>
   <i type="logical" name="LVEL"> F  </i>
   <i type="int" name="KINTER">     0</i>
   <i name="CSHIFT">      0.10000000</i>
   <i name="OMEGAMAX">     -1.00000000</i>
   <i name="DEG_THRESHOLD">      0.00200000</i>
   <i name="RTIME">     -0.10000000</i>
   <i name="WPLASMAI">      0.00000000</i>
   <v name="DFIELD">      0.00000000      0.00000000      0.00000000</v>
   <v name="WPLASMA">      0.00000000      0.00000000      0.00000000      0.00000000      0.00000000      0.00000000      0.00000000      0.00000000      0.00000000</v>
  </separator>
  <separator name="orbital magnetization" >
   <i type="logical" name="NUCIND"> F  </i>
   <v name="MAGPOS">      0.00000000      0.00000000      0.00000000</v>
   <i type="logical" name="LNICSALL"> T  </i>
   <i type="logical" name="ORBITALMAG"> F  </i>
   <i type="logical" name="LMAGBLOCH"> F  </i>
   <i type="logical" name="LCHIMAG"> F  </i>
   <i type="logical" name="LGAUGE"> T  </i>
   <i type="int" name="MAGATOM">     0</i>
   <v name="MAGDIPOL">      0.00000000      0.00000000      0.00000000</v>
   <v name="AVECCONST">      0.00000000      0.00000000      0.00000000</v>
  </separator>
  <separator name="response functions" >
   <i type="logical" name="LADDER"> F  </i>
   <i type="logical" name="LRPAFORCE"> F  </i>
   <i type="logical" name="LFXC"> F  </i>
   <i type="logical" name="LHARTREE"> T  </i>
   <i type="int" name="IBSE">     0</i>
   <v type="int" name="KPOINT">    -1     0     0     0</v>
   <i type="logical" name="LTCTE"> F  </i>
   <i type="logical" name="LTETE"> F  </i>
   <i type="logical" name="LTRIPLET"> F  </i>
   <i type="logical" name="LFXCEPS"> F  </i>
   <i type="logical" name="LFXHEG"> F  </i>
   <i type="int" name="NATURALO">     2</i>
   <i type="logical" name="L2ORDER"> F  </i>
   <i type="logical" name="LMP2LT"> F  </i>
   <i type="logical" name="LUSEW"> F  </i>
   <i name="ENCUTGW">     -2.00000000</i>
   <i name="ENCUTGWSOFT">     -2.00000000</i>
   <i name="ENCUTLF">     -1.00000000</i>
   <i type="int" name="LMAXMP2">    -1</i>
   <i name="SCISSOR">      0.00000000</i>
   <i type="int" name="NOMEGA">     0</i>
   <i type="int" name="NOMEGAR">     0</i>
   <i type="int" name="NBANDSGW">    -1</i>
   <i type="int" name="NBANDSO">    -1</i>
   <i type="int" name="NBANDSV">    -1</i>
   <i type="int" name="NELM">   200</i>
   <i type="int" name="NELMHF">     1</i>
   <i type="int" name="DIM">     3</i>
   <i type="int" name="ANTIRES">     0</i>
   <i name="OMEGAMAX">    -30.00000000</i>
   <i name="OMEGAMIN">    -30.00000000</i>
   <i name="OMEGATL">   -200.00000000</i>
   <i type="int" name="OMEGAGRID">   140</i>
   <i name="CSHIFT">     -0.10000000</i>
   <i type="logical" name="SELFENERGY"> F  </i>
   <i type="logical" name="LSPECTRAL"> F  </i>
   <i type="logical" name="LSPECTRALGW"> F  </i>
   <i type="logical" name="LSINGLES"> F  </i>
   <i type="logical" name="LFERMIGW"> F  </i>
   <i type="logical" name="ODDONLYGW"> F  </i>
   <i type="logical" name="EVENONLYGW"> F  </i>
   <i type="int" name="NKREDLFX">     1</i>
   <i type="int" name="NKREDLFY">     1</i>
   <i type="int" name="NKREDLFZ">     1</i>
   <i type="int" name="MAXMEM">  2800</i>
   <i type="int" name="TELESCOPE">     0</i>
   <i type="int" name="TAUPAR">     1</i>
   <i type="int" name="OMEGAPAR">    -1</i>
   <i name="LAMBDA">      1.00000000</i>
  </separator>
  <separator name="External order field" >
   <i name="OFIELD_KAPPA">      0.00000000</i>
   <v name="OFIELD_K">      0.00000000      0.00000000      0.00000000</v>
   <i name="OFIELD_Q6_NEAR">      0.00000000</i>
   <i name="OFIELD_Q6_FAR">      0.00000000</i>
   <i name="OFIELD_A">      0.00000000</i>
  </separator>
 </parameters>
 <atominfo>
  <atoms>      20 </atoms>
  <types>       3 </types>
  <array name="atoms" >
   <dimension dim="1">ion</dimension>
   <field type="string">element</field>
   <field type="int">atomtype</field>
   <set>
    <rc><c>Cs</c><c>   1</c></rc>
    <rc><c>Cs</c><c>   1</c></rc>
    <rc><c>Cs</c><c>   1</c></rc>
    <rc><c>Cs</c><c>   1</c></rc>
    <rc><c>Pb</c><c>   2</c></rc>
    <rc><c>Pb</c><c>   2</c></rc>
    <rc><c>Pb</c><c>   2</c></rc>
    <rc><c>Pb</c><c>   2</c></rc>
    <rc><c>Br</c><c>   3</c></rc>
    <rc><c>Br</c><c>   3</c></rc>
    <rc><c>Br</c><c>   3</c></rc>
    <rc><c>Br</c><c>   3</c></rc>
    <rc><c>Br</c><c>   3</c></rc>
    <rc><c>Br</c><c>   3</c></rc>
    <rc><c>Br</c><c>   3</c></rc>
    <rc><c>Br</c><c>   3</c></rc>
    <rc><c>Br</c><c>   3</c></rc>
    <rc><c>Br</c><c>   3</c></rc>
    <rc><c>Br</c><c>   3</c></rc>
    <rc><c>Br</c><c>   3</c></rc>
   </set>
  </array>
  <array name="atomtypes" >
   <dimension dim="1">type</dimension>
   <field type="int">atomspertype</field>
   <field type="string">element</field>
   <field>mass</field>
   <field>valence</field>
   <field type="string">pseudopotential</field>
   <set>
    <rc><c>   4</c><c>Cs</c><c>    132.90000000</c><c>      9.00000000</c><c>  PAW_PBE Cs_sv 08Apr2002               </c></rc>
    <rc><c>   4</c><c>Pb</c><c>    207.20000000</c><c>     14.00000000</c><c>  PAW_PBE Pb_d 06Sep2000                </c></rc>
    <rc><c>  12</c><c>Br</c><c>     79.90400000</c><c>      7.00000000</c><c>  PAW_PBE Br 06Sep2000                  </c></rc>
   </set>
  </array>
 </atominfo>
 <structure name="initialpos" >
  <crystal>
   <varray name="basis" >
    <v>       8.84101848       0.00000000       0.00000000 </v>
    <v>       0.00000000      11.41869441       0.00000000 </v>
    <v>       0.00000000       0.00000000       8.48187958 </v>
   </varray>
   <i name="volume">    856.27024142 </i>
   <varray name="rec_basis" >
    <v>       0.11310914       0.00000000       0.00000000 </v>
    <v>       0.00000000       0.08757569       0.00000000 </v>
    <v>       0.00000000       0.00000000       0.11789840 </v>
   </varray>
  </crystal>
  <varray name="positions" >
   <v>       0.05422345       0.25000000       0.48323875 </v>
   <v>       0.44577655       0.75000000       0.98323875 </v>
   <v>       0.55422345       0.25000000       0.01676125 </v>
   <v>       0.94577655       0.75000000       0.51676125 </v>
   <v>       0.00000000       0.00000000       0.00000000 </v>
   <v>       0.50000000       0.00000000       0.50000000 </v>
   <v>       0.50000000       0.50000000       0.50000000 </v>
   <v>       0.00000000       0.50000000       0.00000000 </v>
   <v>       0.52670607       0.75000000       0.41365717 </v>
   <v>       0.97329393       0.25000000       0.91365717 </v>
   <v>       0.02670607       0.75000000       0.08634283 </v>
   <v>       0.47329393       0.25000000       0.58634283 </v>
   <v>       0.27901609       0.46206422       0.21956248 </v>
   <v>       0.22098391       0.53793578       0.71956248 </v>
   <v>       0.77901609       0.03793578       0.28043752 </v>
   <v>       0.72098391       0.96206422       0.78043752 </v>
   <v>       0.27901609       0.03793578       0.21956248 </v>
   <v>       0.22098391       0.96206422       0.71956248 </v>
   <v>       0.72098391       0.53793578       0.78043752 </v>
   <v>       0.77901609       0.46206422       0.28043752 </v>
  </varray>
 </structure>
 <calculation>
  <scstep>
   <time name="dav">    4.39    4.40</time>
   <time name="total">    5.63    5.64</time>
   <energy>
    <i name="alphaZ">    421.37273527 </i>
    <i name="ewald">  -9006.32563340 </i>
    <i name="hartreedc">  -3783.99293079 </i>
    <i name="XCdc">    460.46998558 </i>
    <i name="pawpsdc">  10816.98087266 </i>
    <i name="pawaedc"> -11353.96092700 </i>
    <i name="eentropy">     -0.00132368 </i>
    <i name="bandstr">   -192.74036392 </i>
    <i name="atom">  13290.28009929 </i>
    <i name="e_fr_energy">    652.08251400 </i>
    <i name="e_wo_entrp">    652.08383768 </i>
    <i name="e_0_energy">    652.08317584 </i>
   </energy>
  </scstep>
  <scstep>
   <time name="dav">    4.91    4.93</time>
   <time name="total">    4.91    4.93</time>
   <energy>
    <i name="e_fr_energy">   -576.06487033 </i>
    <i name="e_wo_entrp">   -576.06487033 </i>
    <i name="e_0_energy">   -576.06487033 </i>
   </energy>
  </scstep>
  <scstep>
   <time name="dav">    5.25    5.26</time>
   <time name="total">    5.25    5.26</time>
   <energy>
    <i name="e_fr_energy">   -748.71341221 </i>
    <i name="e_wo_entrp">   -748.71341221 </i>
    <i name="e_0_energy">   -748.71341221 </i>
   </energy>
  </scstep>
  <scstep>
   <time name="dav">    4.86    4.86</time>
   <time name="total">    4.86    4.86</time>
   <energy>
    <i name="e_fr_energy">   -754.45272482 </i>
    <i name="e_wo_entrp">   -754.45272482 </i>
    <i name="e_0_energy">   -754.45272482 </i>
   </energy>
  </scstep>
  <scstep>
   <time name="dav">    5.16    5.19</time>
   <time name="total">    6.12    6.15</time>
   <energy>
    <i name="e_fr_energy">   -754.70765283 </i>
    <i name="e_wo_entrp">   -754.70765283 </i>
    <i name="e_0_energy">   -754.70765283 </i>
   </energy>
  </scstep>
  <scstep>
   <time name="dav">    5.10    5.10</time>
   <time name="total">    7.25    7.30</time>
   <energy>
    <i name="e_fr_energy">   -714.58693611 </i>
    <i name="e_wo_entrp">   -714.58693611 </i>
    <i name="e_0_energy">   -714.58693611 </i>
   </energy>
  </scstep>
  <scstep>
   <time name="dav">    5.03    5.03</time>
   <time name="total">    7.20    7.23</time>
   <energy>
    <i name="e_fr_energy">   -714.34497846 </i>
    <i name="e_wo_entrp">   -714.34497846 </i>
    <i name="e_0_energy">   -714.34497846 </i>
   </energy>
  </scstep>
  <scstep>
   <time name="dav">    4.75    4.75</time>
   <time name="total">    6.94    6.95</time>
   <energy>
    <i name="e_fr_energy">   -714.45322740 </i>
    <i name="e_wo_entrp">   -714.45322740 </i>
    <i name="e_0_energy">   -714.45322740 </i>
   </energy>
  </scstep>
  <scstep>
   <time name="dav">    4.59    4.59</time>
   <time name="total">    6.77    6.79</time>
   <energy>
    <i name="e_fr_energy">   -714.50118347 </i>
    <i name="e_wo_entrp">   -714.50118347 </i>
    <i name="e_0_energy">   -714.50118347 </i>
   </energy>
  </scstep>
  <scstep>
   <time name="dav">    5.50    5.50</time>
   <time name="total">    7.65    7.69</time>
   <energy>
    <i name="e_fr_energy">   -714.50251814 </i>
    <i name="e_wo_entrp">   -714.50251814 </i>
    <i name="e_0_energy">   -714.50251814 </i>
   </energy>
  </scstep>
  <scstep>
   <time name="dav">    4.58    4.58</time>
   <time name="total">    6.78    6.78</time>
   <energy>
    <i name="e_fr_energy">   -714.50485192 </i>
    <i name="e_wo_entrp">   -714.50485192 </i>
    <i name="e_0_energy">   -714.50485192 </i>
   </energy>
  </scstep>
  <scstep>
   <time name="dav">    4.88    4.88</time>
   <time name="total">    7.07    7.07</time>
   <energy>
    <i name="e_fr_energy">   -714.50484643 </i>
    <i name="e_wo_entrp">   -714.50484643 </i>
    <i name="e_0_energy">   -714.50484643 </i>
   </energy>
  </scstep>
  <scstep>
   <time name="dav">    4.84    4.84</time>
   <time name="total">    6.99    7.04</time>
   <energy>
    <i name="e_fr_energy">   -714.50478824 </i>
    <i name="e_wo_entrp">   -714.50478824 </i>
    <i name="e_0_energy">   -714.50478824 </i>
   </energy>
  </scstep>
  <scstep>
   <time name="dav">    4.52    4.52</time>
   <time name="total">    6.67    6.72</time>
   <energy>
    <i name="e_fr_energy">   -714.50479478 </i>
    <i name="e_wo_entrp">   -714.50479478 </i>
    <i name="e_0_energy">   -714.50479478 </i>
   </energy>
  </scstep>
  <scstep>
   <time name="dav">    3.60    3.60</time>
   <time name="total">    5.75    5.81</time>
   <energy>
    <i name="e_fr_energy">   -714.50479191 </i>
    <i name="e_wo_entrp">   -714.50479191 </i>
    <i name="e_0_energy">   -714.50479191 </i>
   </energy>
  </scstep>
  <scstep>
   <time name="dav">    3.61    3.61</time>
   <time name="total">    5.77    5.83</time>
   <energy>
    <i name="e_fr_energy">   -714.50479348 </i>
    <i name="e_wo_entrp">   -714.50479348 </i>
    <i name="e_0_energy">   -714.50479348 </i>
   </energy>
  </scstep>
  <scstep>
   <time name="dav">    3.42    3.42</time>
   <time name="total">    4.67    4.68</time>
   <energy>
    <i name="alphaZ">    421.37273527 </i>
    <i name="ewald">  -9006.32563340 </i>
    <i name="hartreedc">  -3795.66282827 </i>
    <i name="XCdc">    479.95659814 </i>
    <i name="pawpsdc">  11408.61055729 </i>
    <i name="pawaedc"> -11943.39004918 </i>
    <i name="eentropy">     -0.00000000 </i>
    <i name="bandstr">  -1569.34627204 </i>
    <i name="atom">  13290.28009929 </i>
    <i name="e_fr_energy">   -714.50479291 </i>
    <i name="e_wo_entrp">   -714.50479291 </i>
    <i name="e_0_energy">   -714.50479291 </i>
   </energy>
  </scstep>
  <structure>
   <crystal>
    <varray name="basis" >
     <v>       8.84101848       0.00000000       0.00000000 </v>
     <v>       0.00000000      11.41869441       0.00000000 </v>
     <v>       0.00000000       0.00000000       8.48187958 </v>
    </varray>
    <i name="volume">    856.27024142 </i>
    <varray name="rec_basis" >
     <v>       0.11310914       0.00000000       0.00000000 </v>
     <v>       0.00000000       0.08757569       0.00000000 </v>
     <v>       0.00000000       0.00000000       0.11789840 </v>
    </varray>
   </crystal>
   <varray name="positions" >
    <v>       0.05422345       0.25000000       0.48323875 </v>
    <v>       0.44577655       0.75000000       0.98323875 </v>
    <v>       0.55422345       0.25000000       0.01676125 </v>
    <v>       0.94577655       0.75000000       0.51676125 </v>
    <v>       0.00000000       0.00000000       0.00000000 </v>
    <v>       0.50000000       0.00000000       0.50000000 </v>
    <v>       0.50000000       0.50000000       0.50000000 </v>
    <v>       0.00000000       0.50000000       0.00000000 </v>
    <v>       0.52670607       0.75000000       0.41365717 </v>
    <v>       0.97329393       0.25000000       0.91365717 </v>
    <v>       0.02670607       0.75000000       0.08634283 </v>
    <v>       0.47329393       0.25000000       0.58634283 </v>
    <v>       0.27901609       0.46206422       0.21956248 </v>
    <v>       0.22098391       0.53793578       0.71956248 </v>
    <v>       0.77901609       0.03793578       0.28043752 </v>
    <v>       0.72098391       0.96206422       0.78043752 </v>
    <v>       0.27901609       0.03793578       0.21956248 </v>
    <v>       0.22098391       0.96206422       0.71956248 </v>
    <v>       0.72098391       0.53793578       0.78043752 </v>
    <v>       0.77901609       0.46206422       0.28043752 </v>
   </varray>
  </structure>
  <varray name="forces" >
   <v>       0.00157122       0.00000000       0.00274497 </v>
   <v>      -0.00157122       0.00000000       0.00274497 </v>
   <v>       0.00157122       0.00000000      -0.00274497 </v>
   <v>      -0.00157122      -0.00000000      -0.00274497 </v>
   <v>       0.00000000       0.00000000      -0.00000000 </v>
   <v>       0.00000000       0.00000000      -0.00000000 </v>
   <v>       0.00000000       0.00000000      -0.00000000 </v>
   <v>       0.00000000       0.00000000      -0.00000000 </v>
   <v>       0.00613838      -0.00000000      -0.01315647 </v>
   <v>      -0.00613838       0.00000000      -0.01315647 </v>
   <v>       0.00613838      -0.00000000       0.01315647 </v>
   <v>      -0.00613838      -0.00000000       0.01315647 </v>
   <v>       0.00054831      -0.00452539      -0.00108167 </v>
   <v>      -0.00054831       0.00452539      -0.00108167 </v>
   <v>       0.00054831       0.00452539       0.00108167 </v>
   <v>      -0.00054831      -0.00452539       0.00108167 </v>
   <v>       0.00054831       0.00452539      -0.00108167 </v>
   <v>      -0.00054831      -0.00452539      -0.00108167 </v>
   <v>      -0.00054831       0.00452539       0.00108167 </v>
   <v>       0.00054831      -0.00452539       0.00108167 </v>
  </varray>
  <varray name="stress" >
   <v>     -19.53362932       0.00000000      -0.00000000 </v>
   <v>       0.00000000      -0.83040323       0.00000000 </v>
   <v>       0.00000000       0.00000000     -16.32168043 </v>
  </varray>
  <energy>
   <i name="e_fr_energy">   -714.50479291 </i>
   <i name="e_wo_entrp">   -714.50479291 </i>
   <i name="e_0_energy">     -0.00000000 </i>
  </energy>
  <time name="totalsc">  123.38  123.82</time>
  <eigenvalues>
   <array>
    <dimension dim="1">band</dimension>
    <dimension dim="2">kpoint</dimension>
    <dimension dim="3">spin</dimension>
    <field>eigene</field>
    <field>occ</field>
    <set>
     <set comment="spin 1">
      <set comment="kpoint 1">
       <r>  -21.2190    1.0000 </r>
       <r>  -21.2176    1.0000 </r>
       <r>  -21.2167    1.0000 </r>
       <r>  -21.2158    1.0000 </r>
       <r>  -16.9716    1.0000 </r>
       <r>  -16.9600    1.0000 </r>
       <r>  -16.9327    1.0000 </r>
       <r>  -16.9326    1.0000 </r>
       <r>  -16.9021    1.0000 </r>
       <r>  -16.8892    1.0000 </r>
       <r>  -16.8889    1.0000 </r>
       <r>  -16.8875    1.0000 </r>
       <r>  -16.8487    1.0000 </r>
       <r>  -16.8484    1.0000 </r>
       <r>  -16.8483    1.0000 </r>
       <r>  -16.8481    1.0000 </r>
       <r>  -16.8320    1.0000 </r>
       <r>  -16.8320    1.0000 </r>
       <r>  -16.8310    1.0000 </r>
       <r>  -16.8309    1.0000 </r>
       <r>  -16.8270    1.0000 </r>
       <r>  -16.8267    1.0000 </r>
       <r>  -16.8260    1.0000 </r>
       <r>  -16.8255    1.0000 </r>
       <r>  -14.5671    1.0000 </r>
       <r>  -14.4415    1.0000 </r>
       <r>  -14.4359    1.0000 </r>
       <r>  -14.3637    1.0000 </r>
       <r>  -14.2877    1.0000 </r>
       <r>  -14.1863    1.0000 </r>
       <r>  -14.1752    1.0000 </r>
       <r>  -14.1731    1.0000 </r>
       <r>  -14.1648    1.0000 </r>
       <r>  -14.0634    1.0000 </r>
       <r>  -14.0145    1.0000 </r>
       <r>  -14.0034    1.0000 </r>
       <r>   -8.4430    1.0000 </r>
       <r>   -7.8855    1.0000 </r>
       <r>   -7.7315    1.0000 </r>
       <r>   -7.6426    1.0000 </r>
       <r>   -7.6244    1.0000 </r>
       <r>   -7.6164    1.0000 </r>
       <r>   -7.6076    1.0000 </r>
       <r>   -7.6055    1.0000 </r>
       <r>   -7.5897    1.0000 </r>
       <r>   -7.5808    1.0000 </r>
       <r>   -7.5795    1.0000 </r>
       <r>   -7.5770    1.0000 </r>
       <r>   -7.5765    1.0000 </r>
       <r>   -7.5653    1.0000 </r>
       <r>   -7.5616    1.0000 </r>
       <r>   -7.0587    1.0000 </r>
       <r>   -3.6734    1.0000 </r>
       <r>   -3.5758    1.0000 </r>
       <r>   -3.3391    1.0000 </r>
       <r>   -3.3308    1.0000 </r>
       <r>   -3.1817    1.0000 </r>
       <r>   -3.1255    1.0000 </r>
       <r>   -2.3050    1.0000 </r>
       <r>   -2.1655    1.0000 </r>
       <r>   -2.1582    1.0000 </r>
       <r>   -2.1555    1.0000 </r>
       <r>   -2.1320    1.0000 </r>
       <r>   -2.0084    1.0000 </r>
       <r>   -1.9887    1.0000 </r>
       <r>   -1.8607    1.0000 </r>
       <r>   -1.7984    1.0000 </r>
       <r>   -1.7785    1.0000 </r>
       <r>   -1.7676    1.0000 </r>
       <r>   -1.7450    1.0000 </r>
       <r>   -1.7345    1.0000 </r>
       <r>   -1.6526    1.0000 </r>
       <r>   -1.6148    1.0000 </r>
       <r>   -1.6147    1.0000 </r>
       <r>   -1.5857    1.0000 </r>
       <r>   -1.5530    1.0000 </r>
       <r>   -1.5385    1.0000 </r>
       <r>   -1.4994    1.0000 </r>
       <r>   -1.4786    1.0000 </r>
       <r>   -1.4325    1.0000 </r>
       <r>   -1.3661    1.0000 </r>
       <r>   -1.3154    1.0000 </r>
       <r>   -1.2826    1.0000 </r>
       <r>   -1.2702    1.0000 </r>
       <r>   -1.1590    1.0000 </r>
       <r>   -1.0374    1.0000 </r>
       <r>   -0.7885    1.0000 </r>
       <r>   -0.1733    1.0000 </r>
       <r>    2.0768    0.0000 </r>
       <r>    2.2507    0.0000 </r>
       <r>    2.3685    0.0000 </r>
       <r>    2.6357    0.0000 </r>
       <r>    2.6805    0.0000 </r>
       <r>    3.3029    0.0000 </r>
       <r>    4.4226    0.0000 </r>
       <r>    4.8174    0.0000 </r>
       <r>    4.9860    0.0000 </r>
       <r>    5.2736    0.0000 </r>
       <r>    5.4104    0.0000 </r>
       <r>    5.4943    0.0000 </r>
       <r>    5.6504    0.0000 </r>
       <r>    5.8770    0.0000 </r>
       <r>    5.9678    0.0000 </r>
       <r>    6.0505    0.0000 </r>
       <r>    6.0659    0.0000 </r>
       <r>    6.0673    0.0000 </r>
       <r>    6.2705    0.0000 </r>
       <r>    6.3192    0.0000 </r>
       <r>    6.3222    0.0000 </r>
       <r>    6.4401    0.0000 </r>
       <r>    6.5223    0.0000 </r>
       <r>    6.5490    0.0000 </r>
      </set>
      <set comment="kpoint 2">
       <r>  -21.2183    1.0000 </r>
       <r>  -21.2172    1.0000 </r>
       <r>  -21.2170    1.0000 </r>
       <r>  -21.2162    1.0000 </r>
       <r>  -16.9686    1.0000 </r>
       <r>  -16.9628    1.0000 </r>
       <r>  -16.9221    1.0000 </r>
       <r>  -16.9219    1.0000 </r>
       <r>  -16.9004    1.0000 </r>
       <r>  -16.9003    1.0000 </r>
       <r>  -16.8980    1.0000 </r>
       <r>  -16.8910    1.0000 </r>
       <r>  -16.8488    1.0000 </r>
       <r>  -16.8485    1.0000 </r>
       <r>  -16.8481    1.0000 </r>
       <r>  -16.8480    1.0000 </r>
       <r>  -16.8320    1.0000 </r>
       <r>  -16.8320    1.0000 </r>
       <r>  -16.8310    1.0000 </r>
       <r>  -16.8310    1.0000 </r>
       <r>  -16.8268    1.0000 </r>
       <r>  -16.8266    1.0000 </r>
       <r>  -16.8259    1.0000 </r>
       <r>  -16.8255    1.0000 </r>
       <r>  -14.5304    1.0000 </r>
       <r>  -14.4449    1.0000 </r>
       <r>  -14.4392    1.0000 </r>
       <r>  -14.4278    1.0000 </r>
       <r>  -14.2608    1.0000 </r>
       <r>  -14.2046    1.0000 </r>
       <r>  -14.1350    1.0000 </r>
       <r>  -14.1343    1.0000 </r>
       <r>  -14.1247    1.0000 </r>
       <r>  -14.0810    1.0000 </r>
       <r>  -14.0549    1.0000 </r>
       <r>  -14.0440    1.0000 </r>
       <r>   -8.2855    1.0000 </r>
       <r>   -7.9360    1.0000 </r>
       <r>   -7.7383    1.0000 </r>
       <r>   -7.6291    1.0000 </r>
       <r>   -7.6275    1.0000 </r>
       <r>   -7.6074    1.0000 </r>
       <r>   -7.6053    1.0000 </r>
       <r>   -7.6012    1.0000 </r>
       <r>   -7.5918    1.0000 </r>
       <r>   -7.5835    1.0000 </r>
       <r>   -7.5784    1.0000 </r>
       <r>   -7.5769    1.0000 </r>
       <r>   -7.5734    1.0000 </r>
       <r>   -7.5715    1.0000 </r>
       <r>   -7.5453    1.0000 </r>
       <r>   -7.2879    1.0000 </r>
       <r>   -3.6457    1.0000 </r>
       <r>   -3.5926    1.0000 </r>
       <r>   -3.0832    1.0000 </r>
       <r>   -2.9331    1.0000 </r>
       <r>   -2.8730    1.0000 </r>
       <r>   -2.8294    1.0000 </r>
       <r>   -2.4710    1.0000 </r>
       <r>   -2.3615    1.0000 </r>
       <r>   -2.2425    1.0000 </r>
       <r>   -2.2034    1.0000 </r>
       <r>   -2.1721    1.0000 </r>
       <r>   -2.1692    1.0000 </r>
       <r>   -2.1073    1.0000 </r>
       <r>   -2.0262    1.0000 </r>
       <r>   -1.9215    1.0000 </r>
       <r>   -1.8776    1.0000 </r>
       <r>   -1.8310    1.0000 </r>
       <r>   -1.8122    1.0000 </r>
       <r>   -1.7354    1.0000 </r>
       <r>   -1.7085    1.0000 </r>
       <r>   -1.5801    1.0000 </r>
       <r>   -1.5551    1.0000 </r>
       <r>   -1.5548    1.0000 </r>
       <r>   -1.5496    1.0000 </r>
       <r>   -1.5252    1.0000 </r>
       <r>   -1.4966    1.0000 </r>
       <r>   -1.4235    1.0000 </r>
       <r>   -1.4197    1.0000 </r>
       <r>   -1.4193    1.0000 </r>
       <r>   -1.3600    1.0000 </r>
       <r>   -1.3410    1.0000 </r>
       <r>   -1.3321    1.0000 </r>
       <r>   -1.1762    1.0000 </r>
       <r>   -1.1258    1.0000 </r>
       <r>   -0.9676    1.0000 </r>
       <r>   -0.6153    1.0000 </r>
       <r>    2.7909    0.0000 </r>
       <r>    2.8231    0.0000 </r>
       <r>    2.9309    0.0000 </r>
       <r>    3.0307    0.0000 </r>
       <r>    3.2861    0.0000 </r>
       <r>    3.3750    0.0000 </r>
       <r>    4.1713    0.0000 </r>
       <r>    4.3151    0.0000 </r>
       <r>    4.4915    0.0000 </r>
       <r>    4.4963    0.0000 </r>
       <r>    5.1367    0.0000 </r>
       <r>    5.6485    0.0000 </r>
       <r>    5.7696    0.0000 </r>
       <r>    5.8456    0.0000 </r>
       <r>    5.8847    0.0000 </r>
       <r>    5.9505    0.0000 </r>
       <r>    6.1875    0.0000 </r>
       <r>    6.2323    0.0000 </r>
       <r>    6.2494    0.0000 </r>
       <r>    6.2892    0.0000 </r>
       <r>    6.4531    0.0000 </r>
       <r>    6.4782    0.0000 </r>
       <r>    6.5453    0.0000 </r>
       <r>    6.6488    0.0000 </r>
      </set>
      <set comment="kpoint 3">
       <r>  -21.2182    1.0000 </r>
       <r>  -21.2182    1.0000 </r>
       <r>  -21.2162    1.0000 </r>
       <r>  -21.2162    1.0000 </r>
       <r>  -16.9373    1.0000 </r>
       <r>  -16.9373    1.0000 </r>
       <r>  -16.9327    1.0000 </r>
       <r>  -16.9327    1.0000 </r>
       <r>  -16.9243    1.0000 </r>
       <r>  -16.9243    1.0000 </r>
       <r>  -16.8891    1.0000 </r>
       <r>  -16.8891    1.0000 </r>
       <r>  -16.8486    1.0000 </r>
       <r>  -16.8486    1.0000 </r>
       <r>  -16.8482    1.0000 </r>
       <r>  -16.8482    1.0000 </r>
       <r>  -16.8315    1.0000 </r>
       <r>  -16.8315    1.0000 </r>
       <r>  -16.8314    1.0000 </r>
       <r>  -16.8314    1.0000 </r>
       <r>  -16.8265    1.0000 </r>
       <r>  -16.8265    1.0000 </r>
       <r>  -16.8259    1.0000 </r>
       <r>  -16.8259    1.0000 </r>
       <r>  -14.5253    1.0000 </r>
       <r>  -14.5253    1.0000 </r>
       <r>  -14.3991    1.0000 </r>
       <r>  -14.3991    1.0000 </r>
       <r>  -14.1808    1.0000 </r>
       <r>  -14.1808    1.0000 </r>
       <r>  -14.1772    1.0000 </r>
       <r>  -14.1772    1.0000 </r>
       <r>  -14.1455    1.0000 </r>
       <r>  -14.1455    1.0000 </r>
       <r>  -14.0087    1.0000 </r>
       <r>  -14.0087    1.0000 </r>
       <r>   -8.1863    1.0000 </r>
       <r>   -8.1863    1.0000 </r>
       <r>   -7.6219    1.0000 </r>
       <r>   -7.6219    1.0000 </r>
       <r>   -7.6142    1.0000 </r>
       <r>   -7.6142    1.0000 </r>
       <r>   -7.5968    1.0000 </r>
       <r>   -7.5968    1.0000 </r>
       <r>   -7.5860    1.0000 </r>
       <r>   -7.5860    1.0000 </r>
       <r>   -7.5836    1.0000 </r>
       <r>   -7.5836    1.0000 </r>
       <r>   -7.5719    1.0000 </r>
       <r>   -7.5719    1.0000 </r>
       <r>   -7.4397    1.0000 </r>
       <r>   -7.4397    1.0000 </r>
       <r>   -3.2683    1.0000 </r>
       <r>   -3.2683    1.0000 </r>
       <r>   -3.2656    1.0000 </r>
       <r>   -3.2656    1.0000 </r>
       <r>   -2.8020    1.0000 </r>
       <r>   -2.8020    1.0000 </r>
       <r>   -2.7436    1.0000 </r>
       <r>   -2.7436    1.0000 </r>
       <r>   -2.1951    1.0000 </r>
       <r>   -2.1951    1.0000 </r>
       <r>   -2.0842    1.0000 </r>
       <r>   -2.0842    1.0000 </r>
       <r>   -2.0271    1.0000 </r>
       <r>   -2.0271    1.0000 </r>
       <r>   -1.7778    1.0000 </r>
       <r>   -1.7778    1.0000 </r>
       <r>   -1.7443    1.0000 </r>
       <r>   -1.7443    1.0000 </r>
       <r>   -1.7203    1.0000 </r>
       <r>   -1.7203    1.0000 </r>
       <r>   -1.6372    1.0000 </r>
       <r>   -1.6372    1.0000 </r>
       <r>   -1.5735    1.0000 </r>
       <r>   -1.5735    1.0000 </r>
       <r>   -1.5413    1.0000 </r>
       <r>   -1.5413    1.0000 </r>
       <r>   -1.4710    1.0000 </r>
       <r>   -1.4710    1.0000 </r>
       <r>   -1.3557    1.0000 </r>
       <r>   -1.3557    1.0000 </r>
       <r>   -1.3042    1.0000 </r>
       <r>   -1.3042    1.0000 </r>
       <r>   -1.1722    1.0000 </r>
       <r>   -1.1722    1.0000 </r>
       <r>   -0.6270    1.0000 </r>
       <r>   -0.6270    1.0000 </r>
       <r>    2.2681    0.0000 </r>
       <r>    2.2681    0.0000 </r>
       <r>    2.4503    0.0000 </r>
       <r>    2.4503    0.0000 </r>
       <r>    4.0533    0.0000 </r>
       <r>    4.0533    0.0000 </r>
       <r>    4.5379    0.0000 </r>
       <r>    4.5379    0.0000 </r>
       <r>    5.1434    0.0000 </r>
       <r>    5.1434    0.0000 </r>
       <r>    5.1589    0.0000 </r>
       <r>    5.1589    0.0000 </r>
       <r>    5.1981    0.0000 </r>
       <r>    5.1981    0.0000 </r>
       <r>    5.8542    0.0000 </r>
       <r>    5.8542    0.0000 </r>
       <r>    6.0703    0.0000 </r>
       <r>    6.0703    0.0000 </r>
       <r>    6.2335    0.0000 </r>
       <r>    6.2335    0.0000 </r>
       <r>    6.5187    0.0000 </r>
       <r>    6.5345    0.0000 </r>
       <r>    6.5446    0.0000 </r>
       <r>    6.5892    0.0000 </r>
      </set>
      <set comment="kpoint 4">
       <r>  -21.2177    1.0000 </r>
       <r>  -21.2177    1.0000 </r>
       <r>  -21.2167    1.0000 </r>
       <r>  -21.2167    1.0000 </r>
       <r>  -16.9340    1.0000 </r>
       <r>  -16.9340    1.0000 </r>
       <r>  -16.9276    1.0000 </r>
       <r>  -16.9276    1.0000 </r>
       <r>  -16.9219    1.0000 </r>
       <r>  -16.9219    1.0000 </r>
       <r>  -16.9002    1.0000 </r>
       <r>  -16.9002    1.0000 </r>
       <r>  -16.8485    1.0000 </r>
       <r>  -16.8485    1.0000 </r>
       <r>  -16.8483    1.0000 </r>
       <r>  -16.8483    1.0000 </r>
       <r>  -16.8316    1.0000 </r>
       <r>  -16.8316    1.0000 </r>
       <r>  -16.8315    1.0000 </r>
       <r>  -16.8315    1.0000 </r>
       <r>  -16.8264    1.0000 </r>
       <r>  -16.8264    1.0000 </r>
       <r>  -16.8262    1.0000 </r>
       <r>  -16.8262    1.0000 </r>
       <r>  -14.4979    1.0000 </r>
       <r>  -14.4979    1.0000 </r>
       <r>  -14.4359    1.0000 </r>
       <r>  -14.4359    1.0000 </r>
       <r>  -14.1698    1.0000 </r>
       <r>  -14.1698    1.0000 </r>
       <r>  -14.1608    1.0000 </r>
       <r>  -14.1608    1.0000 </r>
       <r>  -14.1257    1.0000 </r>
       <r>  -14.1257    1.0000 </r>
       <r>  -14.0491    1.0000 </r>
       <r>  -14.0491    1.0000 </r>
       <r>   -8.0272    1.0000 </r>
       <r>   -8.0272    1.0000 </r>
       <r>   -7.6805    1.0000 </r>
       <r>   -7.6805    1.0000 </r>
       <r>   -7.6129    1.0000 </r>
       <r>   -7.6129    1.0000 </r>
       <r>   -7.6119    1.0000 </r>
       <r>   -7.6119    1.0000 </r>
       <r>   -7.5930    1.0000 </r>
       <r>   -7.5930    1.0000 </r>
       <r>   -7.5787    1.0000 </r>
       <r>   -7.5787    1.0000 </r>
       <r>   -7.5785    1.0000 </r>
       <r>   -7.5785    1.0000 </r>
       <r>   -7.5602    1.0000 </r>
       <r>   -7.5602    1.0000 </r>
       <r>   -3.0134    1.0000 </r>
       <r>   -3.0134    1.0000 </r>
       <r>   -2.9992    1.0000 </r>
       <r>   -2.9992    1.0000 </r>
       <r>   -2.8120    1.0000 </r>
       <r>   -2.8120    1.0000 </r>
       <r>   -2.6577    1.0000 </r>
       <r>   -2.6577    1.0000 </r>
       <r>   -2.3539    1.0000 </r>
       <r>   -2.3539    1.0000 </r>
       <r>   -2.2774    1.0000 </r>
       <r>   -2.2774    1.0000 </r>
       <r>   -1.9656    1.0000 </r>
       <r>   -1.9656    1.0000 </r>
       <r>   -1.9062    1.0000 </r>
       <r>   -1.9062    1.0000 </r>
       <r>   -1.8243    1.0000 </r>
       <r>   -1.8243    1.0000 </r>
       <r>   -1.7761    1.0000 </r>
       <r>   -1.7761    1.0000 </r>
       <r>   -1.6753    1.0000 </r>
       <r>   -1.6753    1.0000 </r>
       <r>   -1.6733    1.0000 </r>
       <r>   -1.6733    1.0000 </r>
       <r>   -1.4546    1.0000 </r>
       <r>   -1.4546    1.0000 </r>
       <r>   -1.4421    1.0000 </r>
       <r>   -1.4421    1.0000 </r>
       <r>   -1.3656    1.0000 </r>
       <r>   -1.3656    1.0000 </r>
       <r>   -1.3332    1.0000 </r>
       <r>   -1.3332    1.0000 </r>
       <r>   -1.1704    1.0000 </r>
       <r>   -1.1704    1.0000 </r>
       <r>   -1.0156    1.0000 </r>
       <r>   -1.0156    1.0000 </r>
       <r>    2.9837    0.0000 </r>
       <r>    2.9837    0.0000 </r>
       <r>    3.1830    0.0000 </r>
       <r>    3.1830    0.0000 </r>
       <r>    4.1164    0.0000 </r>
       <r>    4.1164    0.0000 </r>
       <r>    4.3893    0.0000 </r>
       <r>    4.3893    0.0000 </r>
       <r>    4.4501    0.0000 </r>
       <r>    4.4501    0.0000 </r>
       <r>    4.4857    0.0000 </r>
       <r>    4.4857    0.0000 </r>
       <r>    5.5601    0.0000 </r>
       <r>    5.5601    0.0000 </r>
       <r>    6.0563    0.0000 </r>
       <r>    6.0563    0.0000 </r>
       <r>    6.0694    0.0000 </r>
       <r>    6.0694    0.0000 </r>
       <r>    6.1353    0.0000 </r>
       <r>    6.1353    0.0000 </r>
       <r>    6.3435    0.0000 </r>
       <r>    6.3436    0.0000 </r>
       <r>    6.4893    0.0000 </r>
       <r>    6.4901    0.0000 </r>
      </set>
      <set comment="kpoint 5">
       <r>  -21.2184    1.0000 </r>
       <r>  -21.2175    1.0000 </r>
       <r>  -21.2168    1.0000 </r>
       <r>  -21.2161    1.0000 </r>
       <r>  -16.9686    1.0000 </r>
       <r>  -16.9629    1.0000 </r>
       <r>  -16.9222    1.0000 </r>
       <r>  -16.9220    1.0000 </r>
       <r>  -16.9003    1.0000 </r>
       <r>  -16.9003    1.0000 </r>
       <r>  -16.8980    1.0000 </r>
       <r>  -16.8909    1.0000 </r>
       <r>  -16.8488    1.0000 </r>
       <r>  -16.8485    1.0000 </r>
       <r>  -16.8483    1.0000 </r>
       <r>  -16.8482    1.0000 </r>
       <r>  -16.8320    1.0000 </r>
       <r>  -16.8320    1.0000 </r>
       <r>  -16.8311    1.0000 </r>
       <r>  -16.8310    1.0000 </r>
       <r>  -16.8268    1.0000 </r>
       <r>  -16.8267    1.0000 </r>
       <r>  -16.8259    1.0000 </r>
       <r>  -16.8255    1.0000 </r>
       <r>  -14.5307    1.0000 </r>
       <r>  -14.4489    1.0000 </r>
       <r>  -14.4365    1.0000 </r>
       <r>  -14.4263    1.0000 </r>
       <r>  -14.2583    1.0000 </r>
       <r>  -14.1969    1.0000 </r>
       <r>  -14.1441    1.0000 </r>
       <r>  -14.1326    1.0000 </r>
       <r>  -14.1262    1.0000 </r>
       <r>  -14.0782    1.0000 </r>
       <r>  -14.0582    1.0000 </r>
       <r>  -14.0467    1.0000 </r>
       <r>   -8.2846    1.0000 </r>
       <r>   -7.9329    1.0000 </r>
       <r>   -7.7226    1.0000 </r>
       <r>   -7.6303    1.0000 </r>
       <r>   -7.6131    1.0000 </r>
       <r>   -7.6094    1.0000 </r>
       <r>   -7.6020    1.0000 </r>
       <r>   -7.5980    1.0000 </r>
       <r>   -7.5977    1.0000 </r>
       <r>   -7.5852    1.0000 </r>
       <r>   -7.5822    1.0000 </r>
       <r>   -7.5739    1.0000 </r>
       <r>   -7.5730    1.0000 </r>
       <r>   -7.5658    1.0000 </r>
       <r>   -7.5577    1.0000 </r>
       <r>   -7.2972    1.0000 </r>
       <r>   -3.6460    1.0000 </r>
       <r>   -3.5895    1.0000 </r>
       <r>   -3.0846    1.0000 </r>
       <r>   -2.9568    1.0000 </r>
       <r>   -2.9056    1.0000 </r>
       <r>   -2.7724    1.0000 </r>
       <r>   -2.5168    1.0000 </r>
       <r>   -2.3893    1.0000 </r>
       <r>   -2.2258    1.0000 </r>
       <r>   -2.2140    1.0000 </r>
       <r>   -2.1830    1.0000 </r>
       <r>   -2.1589    1.0000 </r>
       <r>   -2.0913    1.0000 </r>
       <r>   -1.9880    1.0000 </r>
       <r>   -1.9701    1.0000 </r>
       <r>   -1.8783    1.0000 </r>
       <r>   -1.8219    1.0000 </r>
       <r>   -1.6775    1.0000 </r>
       <r>   -1.6664    1.0000 </r>
       <r>   -1.6440    1.0000 </r>
       <r>   -1.5981    1.0000 </r>
       <r>   -1.5905    1.0000 </r>
       <r>   -1.5807    1.0000 </r>
       <r>   -1.5532    1.0000 </r>
       <r>   -1.5350    1.0000 </r>
       <r>   -1.5114    1.0000 </r>
       <r>   -1.4787    1.0000 </r>
       <r>   -1.4628    1.0000 </r>
       <r>   -1.3959    1.0000 </r>
       <r>   -1.3587    1.0000 </r>
       <r>   -1.3374    1.0000 </r>
       <r>   -1.3372    1.0000 </r>
       <r>   -1.2365    1.0000 </r>
       <r>   -1.1751    1.0000 </r>
       <r>   -0.9534    1.0000 </r>
       <r>   -0.6249    1.0000 </r>
       <r>    2.7798    0.0000 </r>
       <r>    2.8959    0.0000 </r>
       <r>    2.9203    0.0000 </r>
       <r>    2.9476    0.0000 </r>
       <r>    3.3131    0.0000 </r>
       <r>    3.3699    0.0000 </r>
       <r>    4.2059    0.0000 </r>
       <r>    4.2659    0.0000 </r>
       <r>    4.4688    0.0000 </r>
       <r>    4.6253    0.0000 </r>
       <r>    5.0849    0.0000 </r>
       <r>    5.6118    0.0000 </r>
       <r>    5.6323    0.0000 </r>
       <r>    5.8892    0.0000 </r>
       <r>    5.9303    0.0000 </r>
       <r>    5.9836    0.0000 </r>
       <r>    6.0229    0.0000 </r>
       <r>    6.1860    0.0000 </r>
       <r>    6.1919    0.0000 </r>
       <r>    6.3617    0.0000 </r>
       <r>    6.4339    0.0000 </r>
       <r>    6.5930    0.0000 </r>
       <r>    6.7356    0.0000 </r>
       <r>    6.7591    0.0000 </r>
      </set>
      <set comment="kpoint 6">
       <r>  -21.2181    1.0000 </r>
       <r>  -21.2176    1.0000 </r>
       <r>  -21.2168    1.0000 </r>
       <r>  -21.2164    1.0000 </r>
       <r>  -16.9684    1.0000 </r>
       <r>  -16.9654    1.0000 </r>
       <r>  -16.9204    1.0000 </r>
       <r>  -16.9155    1.0000 </r>
       <r>  -16.9108    1.0000 </r>
       <r>  -16.9048    1.0000 </r>
       <r>  -16.8927    1.0000 </r>
       <r>  -16.8878    1.0000 </r>
       <r>  -16.8487    1.0000 </r>
       <r>  -16.8485    1.0000 </r>
       <r>  -16.8482    1.0000 </r>
       <r>  -16.8481    1.0000 </r>
       <r>  -16.8321    1.0000 </r>
       <r>  -16.8320    1.0000 </r>
       <r>  -16.8310    1.0000 </r>
       <r>  -16.8310    1.0000 </r>
       <r>  -16.8268    1.0000 </r>
       <r>  -16.8267    1.0000 </r>
       <r>  -16.8258    1.0000 </r>
       <r>  -16.8256    1.0000 </r>
       <r>  -14.5020    1.0000 </r>
       <r>  -14.4532    1.0000 </r>
       <r>  -14.4385    1.0000 </r>
       <r>  -14.4352    1.0000 </r>
       <r>  -14.2288    1.0000 </r>
       <r>  -14.1796    1.0000 </r>
       <r>  -14.1739    1.0000 </r>
       <r>  -14.1513    1.0000 </r>
       <r>  -14.1363    1.0000 </r>
       <r>  -14.0841    1.0000 </r>
       <r>  -14.0672    1.0000 </r>
       <r>  -14.0398    1.0000 </r>
       <r>   -8.1930    1.0000 </r>
       <r>   -8.0173    1.0000 </r>
       <r>   -7.6481    1.0000 </r>
       <r>   -7.6200    1.0000 </r>
       <r>   -7.6126    1.0000 </r>
       <r>   -7.6038    1.0000 </r>
       <r>   -7.6033    1.0000 </r>
       <r>   -7.5970    1.0000 </r>
       <r>   -7.5920    1.0000 </r>
       <r>   -7.5878    1.0000 </r>
       <r>   -7.5799    1.0000 </r>
       <r>   -7.5755    1.0000 </r>
       <r>   -7.5745    1.0000 </r>
       <r>   -7.5692    1.0000 </r>
       <r>   -7.5288    1.0000 </r>
       <r>   -7.3836    1.0000 </r>
       <r>   -3.6379    1.0000 </r>
       <r>   -3.6093    1.0000 </r>
       <r>   -3.2927    1.0000 </r>
       <r>   -3.0919    1.0000 </r>
       <r>   -2.9835    1.0000 </r>
       <r>   -2.7723    1.0000 </r>
       <r>   -2.4577    1.0000 </r>
       <r>   -2.3181    1.0000 </r>
       <r>   -2.3051    1.0000 </r>
       <r>   -2.2357    1.0000 </r>
       <r>   -2.2217    1.0000 </r>
       <r>   -2.0287    1.0000 </r>
       <r>   -1.9520    1.0000 </r>
       <r>   -1.8856    1.0000 </r>
       <r>   -1.8464    1.0000 </r>
       <r>   -1.8248    1.0000 </r>
       <r>   -1.7975    1.0000 </r>
       <r>   -1.7484    1.0000 </r>
       <r>   -1.6743    1.0000 </r>
       <r>   -1.6605    1.0000 </r>
       <r>   -1.6119    1.0000 </r>
       <r>   -1.6014    1.0000 </r>
       <r>   -1.5869    1.0000 </r>
       <r>   -1.5601    1.0000 </r>
       <r>   -1.5278    1.0000 </r>
       <r>   -1.5253    1.0000 </r>
       <r>   -1.4808    1.0000 </r>
       <r>   -1.4630    1.0000 </r>
       <r>   -1.4563    1.0000 </r>
       <r>   -1.4128    1.0000 </r>
       <r>   -1.4072    1.0000 </r>
       <r>   -1.3731    1.0000 </r>
       <r>   -1.1677    1.0000 </r>
       <r>   -1.1060    1.0000 </r>
       <r>   -0.8231    1.0000 </r>
       <r>   -0.5729    1.0000 </r>
       <r>    2.3797    0.0000 </r>
       <r>    2.7383    0.0000 </r>
       <r>    2.8567    0.0000 </r>
       <r>    3.0192    0.0000 </r>
       <r>    3.1159    0.0000 </r>
       <r>    3.4594    0.0000 </r>
       <r>    4.0717    0.0000 </r>
       <r>    4.4215    0.0000 </r>
       <r>    4.7497    0.0000 </r>
       <r>    5.1138    0.0000 </r>
       <r>    5.3366    0.0000 </r>
       <r>    5.7103    0.0000 </r>
       <r>    5.8352    0.0000 </r>
       <r>    5.8367    0.0000 </r>
       <r>    5.9343    0.0000 </r>
       <r>    6.0151    0.0000 </r>
       <r>    6.0958    0.0000 </r>
       <r>    6.2868    0.0000 </r>
       <r>    6.3234    0.0000 </r>
       <r>    6.4059    0.0000 </r>
       <r>    6.4493    0.0000 </r>
       <r>    6.5444    0.0000 </r>
       <r>    6.5965    0.0000 </r>
       <r>    6.8066    0.0000 </r>
      </set>
      <set comment="kpoint 7">
       <r>  -21.2178    1.0000 </r>
       <r>  -21.2178    1.0000 </r>
       <r>  -21.2166    1.0000 </r>
       <r>  -21.2166    1.0000 </r>
       <r>  -16.9340    1.0000 </r>
       <r>  -16.9340    1.0000 </r>
       <r>  -16.9276    1.0000 </r>
       <r>  -16.9276    1.0000 </r>
       <r>  -16.9220    1.0000 </r>
       <r>  -16.9220    1.0000 </r>
       <r>  -16.9002    1.0000 </r>
       <r>  -16.9002    1.0000 </r>
       <r>  -16.8485    1.0000 </r>
       <r>  -16.8485    1.0000 </r>
       <r>  -16.8484    1.0000 </r>
       <r>  -16.8484    1.0000 </r>
       <r>  -16.8316    1.0000 </r>
       <r>  -16.8316    1.0000 </r>
       <r>  -16.8315    1.0000 </r>
       <r>  -16.8315    1.0000 </r>
       <r>  -16.8264    1.0000 </r>
       <r>  -16.8264    1.0000 </r>
       <r>  -16.8261    1.0000 </r>
       <r>  -16.8261    1.0000 </r>
       <r>  -14.4989    1.0000 </r>
       <r>  -14.4989    1.0000 </r>
       <r>  -14.4348    1.0000 </r>
       <r>  -14.4348    1.0000 </r>
       <r>  -14.1699    1.0000 </r>
       <r>  -14.1699    1.0000 </r>
       <r>  -14.1485    1.0000 </r>
       <r>  -14.1485    1.0000 </r>
       <r>  -14.1362    1.0000 </r>
       <r>  -14.1362    1.0000 </r>
       <r>  -14.0518    1.0000 </r>
       <r>  -14.0518    1.0000 </r>
       <r>   -8.0244    1.0000 </r>
       <r>   -8.0244    1.0000 </r>
       <r>   -7.6647    1.0000 </r>
       <r>   -7.6647    1.0000 </r>
       <r>   -7.6221    1.0000 </r>
       <r>   -7.6221    1.0000 </r>
       <r>   -7.5995    1.0000 </r>
       <r>   -7.5995    1.0000 </r>
       <r>   -7.5930    1.0000 </r>
       <r>   -7.5930    1.0000 </r>
       <r>   -7.5874    1.0000 </r>
       <r>   -7.5874    1.0000 </r>
       <r>   -7.5755    1.0000 </r>
       <r>   -7.5755    1.0000 </r>
       <r>   -7.5688    1.0000 </r>
       <r>   -7.5688    1.0000 </r>
       <r>   -3.0371    1.0000 </r>
       <r>   -3.0371    1.0000 </r>
       <r>   -2.9726    1.0000 </r>
       <r>   -2.9726    1.0000 </r>
       <r>   -2.8173    1.0000 </r>
       <r>   -2.8173    1.0000 </r>
       <r>   -2.6839    1.0000 </r>
       <r>   -2.6839    1.0000 </r>
       <r>   -2.4076    1.0000 </r>
       <r>   -2.4076    1.0000 </r>
       <r>   -2.2432    1.0000 </r>
       <r>   -2.2432    1.0000 </r>
       <r>   -1.9505    1.0000 </r>
       <r>   -1.9505    1.0000 </r>
       <r>   -1.8968    1.0000 </r>
       <r>   -1.8968    1.0000 </r>
       <r>   -1.8335    1.0000 </r>
       <r>   -1.8335    1.0000 </r>
       <r>   -1.7701    1.0000 </r>
       <r>   -1.7701    1.0000 </r>
       <r>   -1.5993    1.0000 </r>
       <r>   -1.5993    1.0000 </r>
       <r>   -1.5445    1.0000 </r>
       <r>   -1.5445    1.0000 </r>
       <r>   -1.5128    1.0000 </r>
       <r>   -1.5128    1.0000 </r>
       <r>   -1.4850    1.0000 </r>
       <r>   -1.4850    1.0000 </r>
       <r>   -1.3865    1.0000 </r>
       <r>   -1.3865    1.0000 </r>
       <r>   -1.3036    1.0000 </r>
       <r>   -1.3036    1.0000 </r>
       <r>   -1.2302    1.0000 </r>
       <r>   -1.2302    1.0000 </r>
       <r>   -1.0808    1.0000 </r>
       <r>   -1.0808    1.0000 </r>
       <r>    3.0472    0.0000 </r>
       <r>    3.0472    0.0000 </r>
       <r>    3.1183    0.0000 </r>
       <r>    3.1183    0.0000 </r>
       <r>    4.1606    0.0000 </r>
       <r>    4.1606    0.0000 </r>
       <r>    4.3696    0.0000 </r>
       <r>    4.3696    0.0000 </r>
       <r>    4.4012    0.0000 </r>
       <r>    4.4012    0.0000 </r>
       <r>    4.4814    0.0000 </r>
       <r>    4.4814    0.0000 </r>
       <r>    5.5421    0.0000 </r>
       <r>    5.5421    0.0000 </r>
       <r>    5.9232    0.0000 </r>
       <r>    5.9232    0.0000 </r>
       <r>    6.0310    0.0000 </r>
       <r>    6.0310    0.0000 </r>
       <r>    6.3815    0.0000 </r>
       <r>    6.3815    0.0000 </r>
       <r>    6.4035    0.0000 </r>
       <r>    6.4035    0.0000 </r>
       <r>    6.4693    0.0000 </r>
       <r>    6.4693    0.0000 </r>
      </set>
      <set comment="kpoint 8">
       <r>  -21.2175    1.0000 </r>
       <r>  -21.2175    1.0000 </r>
       <r>  -21.2169    1.0000 </r>
       <r>  -21.2169    1.0000 </r>
       <r>  -16.9363    1.0000 </r>
       <r>  -16.9363    1.0000 </r>
       <r>  -16.9321    1.0000 </r>
       <r>  -16.9321    1.0000 </r>
       <r>  -16.9127    1.0000 </r>
       <r>  -16.9127    1.0000 </r>
       <r>  -16.9029    1.0000 </r>
       <r>  -16.9029    1.0000 </r>
       <r>  -16.8484    1.0000 </r>
       <r>  -16.8484    1.0000 </r>
       <r>  -16.8484    1.0000 </r>
       <r>  -16.8484    1.0000 </r>
       <r>  -16.8316    1.0000 </r>
       <r>  -16.8316    1.0000 </r>
       <r>  -16.8315    1.0000 </r>
       <r>  -16.8315    1.0000 </r>
       <r>  -16.8263    1.0000 </r>
       <r>  -16.8263    1.0000 </r>
       <r>  -16.8262    1.0000 </r>
       <r>  -16.8262    1.0000 </r>
       <r>  -14.4779    1.0000 </r>
       <r>  -14.4779    1.0000 </r>
       <r>  -14.4440    1.0000 </r>
       <r>  -14.4440    1.0000 </r>
       <r>  -14.1791    1.0000 </r>
       <r>  -14.1791    1.0000 </r>
       <r>  -14.1643    1.0000 </r>
       <r>  -14.1643    1.0000 </r>
       <r>  -14.1067    1.0000 </r>
       <r>  -14.1067    1.0000 </r>
       <r>  -14.0714    1.0000 </r>
       <r>  -14.0714    1.0000 </r>
       <r>   -7.9304    1.0000 </r>
       <r>   -7.9304    1.0000 </r>
       <r>   -7.7505    1.0000 </r>
       <r>   -7.7505    1.0000 </r>
       <r>   -7.6137    1.0000 </r>
       <r>   -7.6137    1.0000 </r>
       <r>   -7.6008    1.0000 </r>
       <r>   -7.6008    1.0000 </r>
       <r>   -7.5903    1.0000 </r>
       <r>   -7.5903    1.0000 </r>
       <r>   -7.5849    1.0000 </r>
       <r>   -7.5849    1.0000 </r>
       <r>   -7.5769    1.0000 </r>
       <r>   -7.5769    1.0000 </r>
       <r>   -7.5685    1.0000 </r>
       <r>   -7.5685    1.0000 </r>
       <r>   -3.2091    1.0000 </r>
       <r>   -3.2091    1.0000 </r>
       <r>   -2.9502    1.0000 </r>
       <r>   -2.9502    1.0000 </r>
       <r>   -2.8494    1.0000 </r>
       <r>   -2.8494    1.0000 </r>
       <r>   -2.7102    1.0000 </r>
       <r>   -2.7102    1.0000 </r>
       <r>   -2.3740    1.0000 </r>
       <r>   -2.3740    1.0000 </r>
       <r>   -2.2284    1.0000 </r>
       <r>   -2.2284    1.0000 </r>
       <r>   -1.9125    1.0000 </r>
       <r>   -1.9125    1.0000 </r>
       <r>   -1.8571    1.0000 </r>
       <r>   -1.8571    1.0000 </r>
       <r>   -1.7902    1.0000 </r>
       <r>   -1.7902    1.0000 </r>
       <r>   -1.7106    1.0000 </r>
       <r>   -1.7106    1.0000 </r>
       <r>   -1.6304    1.0000 </r>
       <r>   -1.6304    1.0000 </r>
       <r>   -1.5914    1.0000 </r>
       <r>   -1.5914    1.0000 </r>
       <r>   -1.5200    1.0000 </r>
       <r>   -1.5200    1.0000 </r>
       <r>   -1.4589    1.0000 </r>
       <r>   -1.4589    1.0000 </r>
       <r>   -1.4214    1.0000 </r>
       <r>   -1.4214    1.0000 </r>
       <r>   -1.3575    1.0000 </r>
       <r>   -1.3575    1.0000 </r>
       <r>   -1.1574    1.0000 </r>
       <r>   -1.1574    1.0000 </r>
       <r>   -0.9839    1.0000 </r>
       <r>   -0.9839    1.0000 </r>
       <r>    2.5722    0.0000 </r>
       <r>    2.5722    0.0000 </r>
       <r>    3.2759    0.0000 </r>
       <r>    3.2759    0.0000 </r>
       <r>    4.1963    0.0000 </r>
       <r>    4.1963    0.0000 </r>
       <r>    4.3159    0.0000 </r>
       <r>    4.3159    0.0000 </r>
       <r>    4.4090    0.0000 </r>
       <r>    4.4090    0.0000 </r>
       <r>    4.9320    0.0000 </r>
       <r>    4.9320    0.0000 </r>
       <r>    5.7465    0.0000 </r>
       <r>    5.7465    0.0000 </r>
       <r>    6.0124    0.0000 </r>
       <r>    6.0124    0.0000 </r>
       <r>    6.1612    0.0000 </r>
       <r>    6.1612    0.0000 </r>
       <r>    6.3355    0.0000 </r>
       <r>    6.3355    0.0000 </r>
       <r>    6.4328    0.0000 </r>
       <r>    6.4330    0.0000 </r>
       <r>    6.5458    0.0000 </r>
       <r>    6.5533    0.0000 </r>
      </set>
     </set>
    </set>
   </array>
  </eigenvalues>
  <separator name="orbital magnetization" >
   <v name="MAGDIPOLOUT">      0.00000000      0.00000000      0.00000000</v>
  </separator>
  <dos>
   <i name="efermi">     -0.09004517 </i>
   <total>
    <array>
     <dimension dim="1">gridpoints</dimension>
     <dimension dim="2">spin</dimension>
     <field>energy</field>
     <field>total</field>
     <field>integrated</field>
     <set>
      <set comment="spin 1">
       <r>   -22.6203     0.0000     0.0000 </r>
       <r>   -22.5175     0.0000     0.0000 </r>
       <r>   -22.4147     0.0000     0.0000 </r>
       <r>   -22.3120     0.0000     0.0000 </r>
       <r>   -22.2092     0.0000     0.0000 </r>
       <r>   -22.1064     0.0000     0.0000 </r>
       <r>   -22.0037     0.0000     0.0000 </r>
       <r>   -21.9009     0.0000     0.0000 </r>
       <r>   -21.7982     0.0000     0.0000 </r>
       <r>   -21.6954     0.0000     0.0000 </r>
       <r>   -21.5926     0.0000     0.0000 </r>
       <r>   -21.4899     0.0000     0.0000 </r>
       <r>   -21.3871     0.0000     0.0000 </r>
       <r>   -21.2844     0.0000     0.0000 </r>
       <r>   -21.1816    77.8510     8.0000 </r>
       <r>   -21.0788     0.0000     8.0000 </r>
       <r>   -20.9761     0.0000     8.0000 </r>
       <r>   -20.8733     0.0000     8.0000 </r>
       <r>   -20.7706     0.0000     8.0000 </r>
       <r>   -20.6678     0.0000     8.0000 </r>
       <r>   -20.5650     0.0000     8.0000 </r>
       <r>   -20.4623     0.0000     8.0000 </r>
       <r>   -20.3595     0.0000     8.0000 </r>
       <r>   -20.2568     0.0000     8.0000 </r>
       <r>   -20.1540     0.0000     8.0000 </r>
       <r>   -20.0512     0.0000     8.0000 </r>
       <r>   -19.9485     0.0000     8.0000 </r>
       <r>   -19.8457     0.0000     8.0000 </r>
       <r>   -19.7430     0.0000     8.0000 </r>
       <r>   -19.6402     0.0000     8.0000 </r>
       <r>   -19.5374     0.0000     8.0000 </r>
       <r>   -19.4347     0.0000     8.0000 </r>
       <r>   -19.3319     0.0000     8.0000 </r>
       <r>   -19.2292     0.0000     8.0000 </r>
       <r>   -19.1264     0.0000     8.0000 </r>
       <r>   -19.0236     0.0000     8.0000 </r>
       <r>   -18.9209     0.0000     8.0000 </r>
       <r>   -18.8181     0.0000     8.0000 </r>
       <r>   -18.7154     0.0000     8.0000 </r>
       <r>   -18.6126     0.0000     8.0000 </r>
       <r>   -18.5098     0.0000     8.0000 </r>
       <r>   -18.4071     0.0000     8.0000 </r>
       <r>   -18.3043     0.0000     8.0000 </r>
       <r>   -18.2016     0.0000     8.0000 </r>
       <r>   -18.0988     0.0000     8.0000 </r>
       <r>   -17.9960     0.0000     8.0000 </r>
       <r>   -17.8933     0.0000     8.0000 </r>
       <r>   -17.7905     0.0000     8.0000 </r>
       <r>   -17.6878     0.0000     8.0000 </r>
       <r>   -17.5850     0.0000     8.0000 </r>
       <r>   -17.4822     0.0000     8.0000 </r>
       <r>   -17.3795     0.0000     8.0000 </r>
       <r>   -17.2767     0.0000     8.0000 </r>
       <r>   -17.1740     0.0000     8.0000 </r>
       <r>   -17.0712     0.0000     8.0000 </r>
       <r>   -16.9684     7.5825     8.7792 </r>
       <r>   -16.8657   136.7999    24.0576 </r>
       <r>   -16.7629   155.7020    48.0000 </r>
       <r>   -16.6602     0.0000    48.0000 </r>
       <r>   -16.5574     0.0000    48.0000 </r>
       <r>   -16.4546     0.0000    48.0000 </r>
       <r>   -16.3519     0.0000    48.0000 </r>
       <r>   -16.2491     0.0000    48.0000 </r>
       <r>   -16.1463     0.0000    48.0000 </r>
       <r>   -16.0436     0.0000    48.0000 </r>
       <r>   -15.9408     0.0000    48.0000 </r>
       <r>   -15.8381     0.0000    48.0000 </r>
       <r>   -15.7353     0.0000    48.0000 </r>
       <r>   -15.6325     0.0000    48.0000 </r>
       <r>   -15.5298     0.0000    48.0000 </r>
       <r>   -15.4270     0.0000    48.0000 </r>
       <r>   -15.3243     0.0000    48.0000 </r>
       <r>   -15.2215     0.0000    48.0000 </r>
       <r>   -15.1187     0.0000    48.0000 </r>
       <r>   -15.0160     0.0000    48.0000 </r>
       <r>   -14.9132     0.0000    48.0000 </r>
       <r>   -14.8105     0.0000    48.0000 </r>
       <r>   -14.7077     0.0000    48.0000 </r>
       <r>   -14.6049     0.0000    48.0000 </r>
       <r>   -14.5022    12.2459    49.2584 </r>
       <r>   -14.3994    55.0962    55.7731 </r>
       <r>   -14.2967     1.1933    56.0115 </r>
       <r>   -14.1939    12.6116    57.4071 </r>
       <r>   -14.0911    68.9496    67.0856 </r>
       <r>   -13.9884    31.3320    71.9976 </r>
       <r>   -13.8856     0.0000    72.0000 </r>
       <r>   -13.7829     0.0000    72.0000 </r>
       <r>   -13.6801     0.0000    72.0000 </r>
       <r>   -13.5773     0.0000    72.0000 </r>
       <r>   -13.4746     0.0000    72.0000 </r>
       <r>   -13.3718     0.0000    72.0000 </r>
       <r>   -13.2691     0.0000    72.0000 </r>
       <r>   -13.1663     0.0000    72.0000 </r>
       <r>   -13.0635     0.0000    72.0000 </r>
       <r>   -12.9608     0.0000    72.0000 </r>
       <r>   -12.8580     0.0000    72.0000 </r>
       <r>   -12.7553     0.0000    72.0000 </r>
       <r>   -12.6525     0.0000    72.0000 </r>
       <r>   -12.5497     0.0000    72.0000 </r>
       <r>   -12.4470     0.0000    72.0000 </r>
       <r>   -12.3442     0.0000    72.0000 </r>
       <r>   -12.2415     0.0000    72.0000 </r>
       <r>   -12.1387     0.0000    72.0000 </r>
       <r>   -12.0359     0.0000    72.0000 </r>
       <r>   -11.9332     0.0000    72.0000 </r>
       <r>   -11.8304     0.0000    72.0000 </r>
       <r>   -11.7277     0.0000    72.0000 </r>
       <r>   -11.6249     0.0000    72.0000 </r>
       <r>   -11.5221     0.0000    72.0000 </r>
       <r>   -11.4194     0.0000    72.0000 </r>
       <r>   -11.3166     0.0000    72.0000 </r>
       <r>   -11.2139     0.0000    72.0000 </r>
       <r>   -11.1111     0.0000    72.0000 </r>
       <r>   -11.0083     0.0000    72.0000 </r>
       <r>   -10.9056     0.0000    72.0000 </r>
       <r>   -10.8028     0.0000    72.0000 </r>
       <r>   -10.7001     0.0000    72.0000 </r>
       <r>   -10.5973     0.0000    72.0000 </r>
       <r>   -10.4945     0.0000    72.0000 </r>
       <r>   -10.3918     0.0000    72.0000 </r>
       <r>   -10.2890     0.0000    72.0000 </r>
       <r>   -10.1862     0.0000    72.0000 </r>
       <r>   -10.0835     0.0000    72.0000 </r>
       <r>    -9.9807     0.0000    72.0000 </r>
       <r>    -9.8780     0.0000    72.0000 </r>
       <r>    -9.7752     0.0000    72.0000 </r>
       <r>    -9.6724     0.0000    72.0000 </r>
       <r>    -9.5697     0.0000    72.0000 </r>
       <r>    -9.4669     0.0000    72.0000 </r>
       <r>    -9.3642     0.0000    72.0000 </r>
       <r>    -9.2614     0.0000    72.0000 </r>
       <r>    -9.1586     0.0000    72.0000 </r>
       <r>    -9.0559     0.0000    72.0000 </r>
       <r>    -8.9531     0.0000    72.0000 </r>
       <r>    -8.8504     0.0000    72.0000 </r>
       <r>    -8.7476     0.0000    72.0000 </r>
       <r>    -8.6448     0.0000    72.0000 </r>
       <r>    -8.5421     0.0000    72.0000 </r>
       <r>    -8.4393     0.7546    72.0775 </r>
       <r>    -8.3366     0.0000    72.1111 </r>
       <r>    -8.2338     4.3251    72.5556 </r>
       <r>    -8.1310     6.4876    73.2222 </r>
       <r>    -8.0283     3.4257    73.5743 </r>
       <r>    -7.9255    10.4035    75.6246 </r>
       <r>    -7.8228     1.0813    76.0000 </r>
       <r>    -7.7200    13.2149    77.3580 </r>
       <r>    -7.6172    37.6615    81.3146 </r>
       <r>    -7.5145   141.5488   102.7683 </r>
       <r>    -7.4117     2.1626   103.0000 </r>
       <r>    -7.3090     4.4310   103.4553 </r>
       <r>    -7.2062     0.0000   103.8889 </r>
       <r>    -7.1034     0.0000   103.8889 </r>
       <r>    -7.0007     1.0813   104.0000 </r>
       <r>    -6.8979     0.0000   104.0000 </r>
       <r>    -6.7952     0.0000   104.0000 </r>
       <r>    -6.6924     0.0000   104.0000 </r>
       <r>    -6.5896     0.0000   104.0000 </r>
       <r>    -6.4869     0.0000   104.0000 </r>
       <r>    -6.3841     0.0000   104.0000 </r>
       <r>    -6.2814     0.0000   104.0000 </r>
       <r>    -6.1786     0.0000   104.0000 </r>
       <r>    -6.0758     0.0000   104.0000 </r>
       <r>    -5.9731     0.0000   104.0000 </r>
       <r>    -5.8703     0.0000   104.0000 </r>
       <r>    -5.7676     0.0000   104.0000 </r>
       <r>    -5.6648     0.0000   104.0000 </r>
       <r>    -5.5620     0.0000   104.0000 </r>
       <r>    -5.4593     0.0000   104.0000 </r>
       <r>    -5.3565     0.0000   104.0000 </r>
       <r>    -5.2538     0.0000   104.0000 </r>
       <r>    -5.1510     0.0000   104.0000 </r>
       <r>    -5.0482     0.0000   104.0000 </r>
       <r>    -4.9455     0.0000   104.0000 </r>
       <r>    -4.8427     0.0000   104.0000 </r>
       <r>    -4.7400     0.0000   104.0000 </r>
       <r>    -4.6372     0.0000   104.0000 </r>
       <r>    -4.5344     0.0000   104.0000 </r>
       <r>    -4.4317     0.0000   104.0000 </r>
       <r>    -4.3289     0.0000   104.0000 </r>
       <r>    -4.2261     0.0000   104.0000 </r>
       <r>    -4.1234     0.0000   104.0000 </r>
       <r>    -4.0206     0.0000   104.0000 </r>
       <r>    -3.9179     0.0000   104.0000 </r>
       <r>    -3.8151     0.0000   104.0000 </r>
       <r>    -3.7123     0.0000   104.0000 </r>
       <r>    -3.6096    11.8567   105.2184 </r>
       <r>    -3.5068     1.0813   106.0000 </r>
       <r>    -3.4041     0.0000   106.0000 </r>
       <r>    -3.3013     2.6505   106.2724 </r>
       <r>    -3.1985    12.4028   107.9412 </r>
       <r>    -3.0958     2.5500   108.3731 </r>
       <r>    -2.9930    12.5348   110.3992 </r>
       <r>    -2.8903    15.1214   112.8872 </r>
       <r>    -2.7875    21.6852   115.3395 </r>
       <r>    -2.6847    12.7721   117.3125 </r>
       <r>    -2.5820     4.3248   118.0000 </r>
       <r>    -2.4792     2.4349   118.2502 </r>
       <r>    -2.3765     9.5878   119.8741 </r>
       <r>    -2.2737    12.7554   122.4219 </r>
       <r>    -2.1709    36.9908   126.3567 </r>
       <r>    -2.0682     7.5425   127.8862 </r>
       <r>    -1.9654    16.9808   129.6338 </r>
       <r>    -1.8627    30.3875   133.9004 </r>
       <r>    -1.7599    46.2340   139.8621 </r>
       <r>    -1.6571    36.5014   144.4176 </r>
       <r>    -1.5544    56.7450   150.9423 </r>
       <r>    -1.4516    63.1932   159.0494 </r>
       <r>    -1.3489    54.0701   165.5563 </r>
       <r>    -1.2461     9.9744   168.0250 </r>
       <r>    -1.1433    24.6644   171.2012 </r>
       <r>    -1.0406     9.0067   172.3700 </r>
       <r>    -0.9378    17.2694   174.2191 </r>
       <r>    -0.8351     0.1986   174.2426 </r>
       <r>    -0.7323     1.0813   174.7778 </r>
       <r>    -0.6295     1.3749   174.9191 </r>
       <r>    -0.5268     4.3251   175.8889 </r>
       <r>    -0.4240     0.0000   175.8889 </r>
       <r>    -0.3213     0.0000   175.8889 </r>
       <r>    -0.2185     0.0000   175.8889 </r>
       <r>    -0.1157     1.0813   176.0000 </r>
       <r>    -0.0130     0.0000   176.0000 </r>
       <r>     0.0898     0.0000   176.0000 </r>
       <r>     0.1925     0.0000   176.0000 </r>
       <r>     0.2953     0.0000   176.0000 </r>
       <r>     0.3981     0.0000   176.0000 </r>
       <r>     0.5008     0.0000   176.0000 </r>
       <r>     0.6036     0.0000   176.0000 </r>
       <r>     0.7063     0.0000   176.0000 </r>
       <r>     0.8091     0.0000   176.0000 </r>
       <r>     0.9119     0.0000   176.0000 </r>
       <r>     1.0146     0.0000   176.0000 </r>
       <r>     1.1174     0.0000   176.0000 </r>
       <r>     1.2201     0.0000   176.0000 </r>
       <r>     1.3229     0.0000   176.0000 </r>
       <r>     1.4257     0.0000   176.0000 </r>
       <r>     1.5284     0.0000   176.0000 </r>
       <r>     1.6312     0.0000   176.0000 </r>
       <r>     1.7340     0.0000   176.0000 </r>
       <r>     1.8367     0.0000   176.0000 </r>
       <r>     1.9395     0.0000   176.0000 </r>
       <r>     2.0422     0.0000   176.0000 </r>
       <r>     2.1450     1.0813   176.1111 </r>
       <r>     2.2478     0.3704   176.1492 </r>
       <r>     2.3505     0.0060   176.4451 </r>
       <r>     2.4533     5.7612   177.1476 </r>
       <r>     2.5560     0.0951   177.2320 </r>
       <r>     2.6588     1.0819   178.2223 </r>
       <r>     2.7616     4.3334   178.7786 </r>
       <r>     2.8643     8.0345   179.8256 </r>
       <r>     2.9671     8.6840   180.7813 </r>
       <r>     3.0698    10.8097   182.3330 </r>
       <r>     3.1726     8.9574   183.2538 </r>
       <r>     3.2754     4.2162   184.0999 </r>
       <r>     3.3781     6.5883   185.4548 </r>
       <r>     3.4809     4.3198   185.9995 </r>
       <r>     3.5836     0.0000   186.0000 </r>
       <r>     3.6864     0.0000   186.0000 </r>
       <r>     3.7892     0.0000   186.0000 </r>
       <r>     3.8919     0.0000   186.0000 </r>
       <r>     3.9947     0.0000   186.0000 </r>
       <r>     4.0974     6.5027   186.6682 </r>
       <r>     4.2002    13.0746   188.4547 </r>
       <r>     4.3030     2.5430   189.1502 </r>
       <r>     4.4057    14.6269   191.7253 </r>
       <r>     4.5085    19.3512   194.9885 </r>
       <r>     4.6112     2.2137   195.2275 </r>
       <r>     4.7140     0.0000   195.4444 </r>
       <r>     4.8168     4.8267   195.9404 </r>
       <r>     4.9195     0.3402   196.0350 </r>
       <r>     5.0223     1.0813   197.0000 </r>
       <r>     5.1250     6.3605   197.6536 </r>
       <r>     5.2278     4.3250   198.5556 </r>
       <r>     5.3306     1.9357   198.7545 </r>
       <r>     5.4333     1.0806   199.2222 </r>
       <r>     5.5361     1.9320   199.4208 </r>
       <r>     5.6388     8.5067   200.6521 </r>
       <r>     5.7416     6.4246   201.6602 </r>
       <r>     5.8444    10.9043   203.4539 </r>
       <r>     5.9471    16.7386   205.6090 </r>
       <r>     6.0499    22.9361   208.2458 </r>
       <r>     6.1526     9.5983   210.5419 </r>
       <r>     6.2554    12.5632   212.6243 </r>
       <r>     6.3582    26.5273   215.5037 </r>
       <r>     6.4609    31.3717   218.8906 </r>
       <r>     6.5637    24.4855   222.0717 </r>
       <r>     6.6664     9.7173   223.1097 </r>
       <r>     6.7692     4.1607   223.5387 </r>
       <r>     6.8720     4.3251   224.0000 </r>
       <r>     6.9747     0.0000   224.0000 </r>
       <r>     7.0775     0.0000   224.0000 </r>
       <r>     7.1802     0.0000   224.0000 </r>
       <r>     7.2830     0.0000   224.0000 </r>
       <r>     7.3858     0.0000   224.0000 </r>
       <r>     7.4885     0.0000   224.0000 </r>
       <r>     7.5913     0.0000   224.0000 </r>
       <r>     7.6941     0.0000   224.0000 </r>
       <r>     7.7968     0.0000   224.0000 </r>
       <r>     7.8996     0.0000   224.0000 </r>
       <r>     8.0023     0.0000   224.0000 </r>
       <r>     8.1051     0.0000   224.0000 </r>
       <r>     8.2079     0.0000   224.0000 </r>
      </set>
     </set>
    </array>
   </total>
   <partial>
    <array>
     <dimension dim="1">gridpoints</dimension>
     <dimension dim="2">spin</dimension>
     <dimension dim="3">ion</dimension>
     <field>energy</field>
     <field>  s  </field>
     <field>  p  </field>
     <field>  d  </field>
     <set>
      <set comment="ion 1">
       <set comment="spin 1">
        <r>   -22.6203     0.0000     0.0000     0.0000 </r>
        <r>   -22.5175     0.0000     0.0000     0.0000 </r>
        <r>   -22.4147     0.0000     0.0000     0.0000 </r>
        <r>   -22.3120     0.0000     0.0000     0.0000 </r>
        <r>   -22.2092     0.0000     0.0000     0.0000 </r>
[...]
        <r>  0.0000  0.0004  0.0001 </r>
        <r>  0.0016  0.0960  0.0007 </r>
        <r>  0.0016  0.0893  0.0008 </r>
        <r>  0.0016  0.0813  0.0008 </r>
        <r>  0.0014  0.0902  0.0007 </r>
        <r>  0.0003  0.0076  0.0005 </r>
        <r>  0.0001  0.0025  0.0017 </r>
        <r>  0.0005  0.0088  0.0006 </r>
        <r>  0.0001  0.0019  0.0017 </r>
        <r>  0.0053  0.0175  0.0031 </r>
        <r>  0.0002  0.0061  0.0003 </r>
        <r>  0.0001  0.0056  0.0002 </r>
        <r>  0.0071  0.0181  0.0031 </r>
        <r>  0.0060  0.0188  0.0032 </r>
        <r>  0.0001  0.0064  0.0003 </r>
        <r>  0.0063  0.0168  0.0029 </r>
        <r>  0.0001  0.0053  0.0002 </r>
       </set>
       <set comment="band 93">
        <r>  0.0000  0.0001  0.0008 </r>
        <r>  0.0001  0.0001  0.0002 </r>
        <r>  0.0000  0.0000  0.0006 </r>
        <r>  0.0001  0.0003  0.0009 </r>
        <r>  0.0002  0.0373  0.0009 </r>
        <r>  0.0005  0.0463  0.0014 </r>
        <r>  0.0012  0.1400  0.0009 </r>
        <r>  0.0011  0.0977  0.0013 </r>
        <r>  0.0027  0.0070  0.0022 </r>
        <r>  0.0004  0.0096  0.0022 </r>
        <r>  0.0023  0.0056  0.0015 </r>
        <r>  0.0005  0.0176  0.0017 </r>
        <r>  0.0033  0.0473  0.0017 </r>
        <r>  0.0000  0.0006  0.0023 </r>
        <r>  0.0000  0.0002  0.0008 </r>
        <r>  0.0017  0.0188  0.0008 </r>
        <r>  0.0008  0.0187  0.0009 </r>
        <r>  0.0000  0.0003  0.0009 </r>
        <r>  0.0042  0.0474  0.0016 </r>
        <r>  0.0000  0.0005  0.0023 </r>
       </set>
       <set comment="band 94">
        <r>  0.0001  0.0003  0.0009 </r>
        <r>  0.0000  0.0000  0.0006 </r>
        <r>  0.0001  0.0001  0.0002 </r>
        <r>  0.0000  0.0001  0.0008 </r>
        <r>  0.0011  0.0977  0.0013 </r>
        <r>  0.0012  0.1400  0.0009 </r>
        <r>  0.0005  0.0463  0.0014 </r>
        <r>  0.0002  0.0373  0.0009 </r>
        <r>  0.0005  0.0176  0.0017 </r>
        <r>  0.0023  0.0056  0.0015 </r>
        <r>  0.0004  0.0096  0.0022 </r>
        <r>  0.0027  0.0070  0.0022 </r>
        <r>  0.0017  0.0188  0.0008 </r>
        <r>  0.0000  0.0002  0.0008 </r>
        <r>  0.0000  0.0006  0.0023 </r>
        <r>  0.0033  0.0473  0.0017 </r>
        <r>  0.0042  0.0474  0.0016 </r>
        <r>  0.0000  0.0005  0.0023 </r>
        <r>  0.0008  0.0187  0.0009 </r>
        <r>  0.0000  0.0003  0.0009 </r>
       </set>
       <set comment="band 95">
        <r>  0.0000  0.0000  0.0006 </r>
        <r>  0.0002  0.0005  0.0010 </r>
        <r>  0.0000  0.0000  0.0013 </r>
        <r>  0.0000  0.0007  0.0006 </r>
        <r>  0.0031  0.1049  0.0008 </r>
        <r>  0.0025  0.0852  0.0009 </r>
        <r>  0.0033  0.0546  0.0012 </r>
        <r>  0.0042  0.0716  0.0011 </r>
        <r>  0.0092  0.0037  0.0031 </r>
        <r>  0.0002  0.0535  0.0015 </r>
        <r>  0.0093  0.0024  0.0040 </r>
        <r>  0.0002  0.0450  0.0027 </r>
        <r>  0.0015  0.0096  0.0008 </r>
        <r>  0.0000  0.0003  0.0009 </r>
        <r>  0.0001  0.0013  0.0020 </r>
        <r>  0.0006  0.0154  0.0009 </r>
        <r>  0.0018  0.0135  0.0012 </r>
        <r>  0.0001  0.0005  0.0015 </r>
        <r>  0.0003  0.0115  0.0005 </r>
        <r>  0.0001  0.0011  0.0014 </r>
       </set>
       <set comment="band 96">
        <r>  0.0000  0.0007  0.0006 </r>
        <r>  0.0000  0.0000  0.0013 </r>
        <r>  0.0002  0.0005  0.0010 </r>
        <r>  0.0000  0.0000  0.0006 </r>
        <r>  0.0042  0.0716  0.0011 </r>
        <r>  0.0033  0.0546  0.0012 </r>
        <r>  0.0025  0.0852  0.0009 </r>
        <r>  0.0031  0.1049  0.0008 </r>
        <r>  0.0002  0.0450  0.0027 </r>
        <r>  0.0093  0.0024  0.0040 </r>
        <r>  0.0002  0.0535  0.0015 </r>
        <r>  0.0092  0.0037  0.0031 </r>
        <r>  0.0006  0.0154  0.0009 </r>
        <r>  0.0001  0.0013  0.0020 </r>
        <r>  0.0000  0.0003  0.0009 </r>
        <r>  0.0015  0.0096  0.0008 </r>
        <r>  0.0003  0.0115  0.0005 </r>
        <r>  0.0001  0.0011  0.0014 </r>
        <r>  0.0018  0.0135  0.0012 </r>
        <r>  0.0001  0.0005  0.0015 </r>
       </set>
       <set comment="band 97">
        <r>  0.0000  0.0001  0.0004 </r>
        <r>  0.0004  0.0009  0.0008 </r>
        <r>  0.0000  0.0002  0.0001 </r>
        <r>  0.0005  0.0004  0.0003 </r>
        <r>  0.0018  0.0961  0.0012 </r>
        <r>  0.0022  0.0858  0.0010 </r>
        <r>  0.0027  0.0713  0.0013 </r>
        <r>  0.0024  0.0723  0.0015 </r>
        <r>  0.0130  0.0024  0.0045 </r>
        <r>  0.0001  0.0613  0.0015 </r>
        <r>  0.0131  0.0022  0.0051 </r>
        <r>  0.0001  0.0597  0.0021 </r>
        <r>  0.0001  0.0036  0.0012 </r>
        <r>  0.0001  0.0021  0.0003 </r>
        <r>  0.0005  0.0087  0.0003 </r>
        <r>  0.0001  0.0011  0.0014 </r>
        <r>  0.0001  0.0038  0.0015 </r>
        <r>  0.0001  0.0032  0.0002 </r>
        <r>  0.0001  0.0008  0.0011 </r>
        <r>  0.0004  0.0076  0.0003 </r>
       </set>
       <set comment="band 98">
        <r>  0.0005  0.0004  0.0003 </r>
        <r>  0.0000  0.0002  0.0001 </r>
        <r>  0.0004  0.0009  0.0008 </r>
        <r>  0.0000  0.0001  0.0004 </r>
        <r>  0.0024  0.0723  0.0015 </r>
        <r>  0.0027  0.0713  0.0013 </r>
        <r>  0.0022  0.0858  0.0010 </r>
        <r>  0.0018  0.0961  0.0012 </r>
        <r>  0.0001  0.0597  0.0021 </r>
        <r>  0.0131  0.0022  0.0051 </r>
        <r>  0.0001  0.0613  0.0015 </r>
        <r>  0.0130  0.0024  0.0045 </r>
        <r>  0.0001  0.0011  0.0014 </r>
        <r>  0.0005  0.0087  0.0003 </r>
        <r>  0.0001  0.0021  0.0003 </r>
        <r>  0.0001  0.0036  0.0012 </r>
        <r>  0.0001  0.0008  0.0011 </r>
        <r>  0.0004  0.0076  0.0003 </r>
        <r>  0.0001  0.0038  0.0015 </r>
        <r>  0.0001  0.0032  0.0002 </r>
       </set>
       <set comment="band 99">
        <r>  0.0000  0.0001  0.0004 </r>
        <r>  0.0000  0.0000  0.0007 </r>
        <r>  0.0000  0.0001  0.0007 </r>
        <r>  0.0000  0.0000  0.0009 </r>
        <r>  0.0000  0.0141  0.0004 </r>
        <r>  0.0003  0.0144  0.0003 </r>
        <r>  0.0000  0.1552  0.0002 </r>
        <r>  0.0000  0.1506  0.0002 </r>
        <r>  0.0000  0.0019  0.0021 </r>
        <r>  0.0001  0.0038  0.0010 </r>
        <r>  0.0000  0.0013  0.0029 </r>
        <r>  0.0000  0.0029  0.0011 </r>
        <r>  0.0000  0.0014  0.0031 </r>
        <r>  0.0000  0.0966  0.0011 </r>
        <r>  0.0000  0.0098  0.0003 </r>
        <r>  0.0000  0.0004  0.0002 </r>
        <r>  0.0000  0.0004  0.0003 </r>
        <r>  0.0000  0.0084  0.0001 </r>
        <r>  0.0000  0.0015  0.0030 </r>
        <r>  0.0000  0.0980  0.0013 </r>
       </set>
       <set comment="band 100">
        <r>  0.0000  0.0000  0.0009 </r>
        <r>  0.0000  0.0001  0.0007 </r>
        <r>  0.0000  0.0000  0.0007 </r>
        <r>  0.0000  0.0001  0.0004 </r>
        <r>  0.0000  0.1506  0.0002 </r>
        <r>  0.0000  0.1552  0.0002 </r>
        <r>  0.0003  0.0144  0.0003 </r>
        <r>  0.0000  0.0141  0.0004 </r>
        <r>  0.0000  0.0029  0.0011 </r>
        <r>  0.0000  0.0013  0.0029 </r>
        <r>  0.0001  0.0038  0.0010 </r>
        <r>  0.0000  0.0019  0.0021 </r>
        <r>  0.0000  0.0004  0.0002 </r>
        <r>  0.0000  0.0098  0.0003 </r>
        <r>  0.0000  0.0966  0.0011 </r>
        <r>  0.0000  0.0014  0.0031 </r>
        <r>  0.0000  0.0015  0.0030 </r>
        <r>  0.0000  0.0980  0.0013 </r>
        <r>  0.0000  0.0004  0.0003 </r>
        <r>  0.0000  0.0084  0.0001 </r>
       </set>
       <set comment="band 101">
        <r>  0.0079  0.0028  0.0082 </r>
        <r>  0.0055  0.0023  0.0103 </r>
        <r>  0.0070  0.0022  0.0092 </r>
        <r>  0.0063  0.0029  0.0077 </r>
        <r>  0.0001  0.0048  0.0001 </r>
        <r>  0.0000  0.0066  0.0002 </r>
        <r>  0.0005  0.0087  0.0003 </r>
        <r>  0.0005  0.0053  0.0003 </r>
        <r>  0.0002  0.0045  0.0009 </r>
        <r>  0.0006  0.0043  0.0010 </r>
        <r>  0.0004  0.0042  0.0009 </r>
        <r>  0.0003  0.0043  0.0010 </r>
        <r>  0.0035  0.0028  0.0028 </r>
        <r>  0.0070  0.0060  0.0020 </r>
        <r>  0.0008  0.0017  0.0011 </r>
        <r>  0.0008  0.0044  0.0010 </r>
        <r>  0.0010  0.0042  0.0011 </r>
        <r>  0.0004  0.0015  0.0011 </r>
        <r>  0.0033  0.0030  0.0026 </r>
        <r>  0.0073  0.0062  0.0020 </r>
       </set>
       <set comment="band 102">
        <r>  0.0063  0.0029  0.0077 </r>
        <r>  0.0070  0.0022  0.0092 </r>
        <r>  0.0055  0.0023  0.0103 </r>
        <r>  0.0079  0.0028  0.0082 </r>
        <r>  0.0005  0.0053  0.0003 </r>
        <r>  0.0005  0.0087  0.0003 </r>
        <r>  0.0000  0.0066  0.0002 </r>
        <r>  0.0001  0.0048  0.0001 </r>
        <r>  0.0003  0.0043  0.0010 </r>
        <r>  0.0004  0.0042  0.0009 </r>
        <r>  0.0006  0.0043  0.0010 </r>
        <r>  0.0002  0.0045  0.0009 </r>
        <r>  0.0008  0.0044  0.0010 </r>
        <r>  0.0008  0.0017  0.0011 </r>
        <r>  0.0070  0.0060  0.0020 </r>
        <r>  0.0035  0.0028  0.0028 </r>
        <r>  0.0033  0.0030  0.0026 </r>
        <r>  0.0073  0.0062  0.0020 </r>
        <r>  0.0010  0.0042  0.0011 </r>
        <r>  0.0004  0.0015  0.0011 </r>
       </set>
       <set comment="band 103">
        <r>  0.0039  0.0014  0.0106 </r>
        <r>  0.0023  0.0013  0.0224 </r>
        <r>  0.0040  0.0018  0.0353 </r>
        <r>  0.0023  0.0011  0.0111 </r>
        <r>  0.0001  0.0117  0.0002 </r>
        <r>  0.0000  0.0012  0.0006 </r>
        <r>  0.0000  0.0080  0.0004 </r>
        <r>  0.0000  0.0053  0.0010 </r>
        <r>  0.0004  0.0040  0.0023 </r>
        <r>  0.0014  0.0026  0.0033 </r>
        <r>  0.0008  0.0019  0.0024 </r>
        <r>  0.0007  0.0059  0.0035 </r>
        <r>  0.0001  0.0055  0.0009 </r>
        <r>  0.0013  0.0006  0.0016 </r>
        <r>  0.0012  0.0012  0.0023 </r>
        <r>  0.0001  0.0061  0.0020 </r>
        <r>  0.0001  0.0069  0.0020 </r>
        <r>  0.0015  0.0013  0.0021 </r>
        <r>  0.0000  0.0047  0.0009 </r>
        <r>  0.0011  0.0005  0.0018 </r>
       </set>
       <set comment="band 104">
        <r>  0.0023  0.0011  0.0111 </r>
        <r>  0.0040  0.0018  0.0353 </r>
        <r>  0.0023  0.0013  0.0224 </r>
        <r>  0.0039  0.0014  0.0106 </r>
        <r>  0.0000  0.0053  0.0010 </r>
        <r>  0.0000  0.0080  0.0004 </r>
        <r>  0.0000  0.0012  0.0006 </r>
        <r>  0.0001  0.0117  0.0002 </r>
        <r>  0.0007  0.0059  0.0035 </r>
        <r>  0.0008  0.0019  0.0024 </r>
        <r>  0.0014  0.0026  0.0033 </r>
        <r>  0.0004  0.0040  0.0023 </r>
        <r>  0.0001  0.0061  0.0020 </r>
        <r>  0.0012  0.0012  0.0023 </r>
        <r>  0.0013  0.0006  0.0016 </r>
        <r>  0.0001  0.0055  0.0009 </r>
        <r>  0.0000  0.0047  0.0009 </r>
        <r>  0.0011  0.0005  0.0018 </r>
        <r>  0.0001  0.0069  0.0020 </r>
        <r>  0.0015  0.0013  0.0021 </r>
       </set>
       <set comment="band 105">
        <r>  0.0001  0.0009  0.0289 </r>
        <r>  0.0007  0.0019  0.0162 </r>
        <r>  0.0003  0.0015  0.0137 </r>
        <r>  0.0002  0.0019  0.0533 </r>
        <r>  0.0001  0.0028  0.0006 </r>
        <r>  0.0000  0.0072  0.0005 </r>
        <r>  0.0000  0.0023  0.0017 </r>
        <r>  0.0000  0.0020  0.0017 </r>
        <r>  0.0015  0.0033  0.0047 </r>
        <r>  0.0001  0.0032  0.0019 </r>
        <r>  0.0001  0.0054  0.0038 </r>
        <r>  0.0006  0.0016  0.0025 </r>
        <r>  0.0012  0.0035  0.0015 </r>
        <r>  0.0000  0.0030  0.0024 </r>
        <r>  0.0017  0.0014  0.0012 </r>
        <r>  0.0008  0.0013  0.0016 </r>
        <r>  0.0015  0.0008  0.0013 </r>
        <r>  0.0013  0.0017  0.0016 </r>
        <r>  0.0005  0.0040  0.0017 </r>
        <r>  0.0004  0.0027  0.0020 </r>
       </set>
       <set comment="band 106">
        <r>  0.0002  0.0019  0.0533 </r>
        <r>  0.0003  0.0015  0.0137 </r>
        <r>  0.0007  0.0019  0.0162 </r>
        <r>  0.0001  0.0009  0.0289 </r>
        <r>  0.0000  0.0020  0.0017 </r>
        <r>  0.0000  0.0023  0.0017 </r>
        <r>  0.0000  0.0072  0.0005 </r>
        <r>  0.0001  0.0028  0.0006 </r>
        <r>  0.0006  0.0016  0.0025 </r>
        <r>  0.0001  0.0054  0.0038 </r>
        <r>  0.0001  0.0032  0.0019 </r>
        <r>  0.0015  0.0033  0.0047 </r>
        <r>  0.0008  0.0013  0.0016 </r>
        <r>  0.0017  0.0014  0.0012 </r>
        <r>  0.0000  0.0030  0.0024 </r>
        <r>  0.0012  0.0035  0.0015 </r>
        <r>  0.0005  0.0040  0.0017 </r>
        <r>  0.0004  0.0027  0.0020 </r>
        <r>  0.0015  0.0008  0.0013 </r>
        <r>  0.0013  0.0017  0.0016 </r>
       </set>
       <set comment="band 107">
        <r>  0.0003  0.0024  0.0429 </r>
        <r>  0.0019  0.0020  0.0124 </r>
        <r>  0.0032  0.0021  0.0175 </r>
        <r>  0.0002  0.0020  0.0370 </r>
        <r>  0.0000  0.0018  0.0002 </r>
        <r>  0.0001  0.0018  0.0007 </r>
        <r>  0.0000  0.0055  0.0017 </r>
        <r>  0.0002  0.0033  0.0012 </r>
        <r>  0.0008  0.0033  0.0017 </r>
        <r>  0.0006  0.0044  0.0017 </r>
        <r>  0.0003  0.0029  0.0015 </r>
        <r>  0.0013  0.0042  0.0023 </r>
        <r>  0.0005  0.0060  0.0023 </r>
        <r>  0.0010  0.0013  0.0031 </r>
        <r>  0.0004  0.0043  0.0031 </r>
        <r>  0.0000  0.0023  0.0018 </r>
        <r>  0.0001  0.0040  0.0021 </r>
        <r>  0.0003  0.0041  0.0027 </r>
        <r>  0.0004  0.0043  0.0020 </r>
        <r>  0.0011  0.0016  0.0034 </r>
       </set>
       <set comment="band 108">
        <r>  0.0002  0.0020  0.0370 </r>
        <r>  0.0031  0.0021  0.0174 </r>
        <r>  0.0019  0.0020  0.0124 </r>
        <r>  0.0003  0.0024  0.0429 </r>
        <r>  0.0002  0.0033  0.0012 </r>
        <r>  0.0000  0.0055  0.0017 </r>
        <r>  0.0001  0.0017  0.0007 </r>
        <r>  0.0000  0.0018  0.0002 </r>
        <r>  0.0013  0.0042  0.0022 </r>
        <r>  0.0003  0.0029  0.0015 </r>
        <r>  0.0006  0.0044  0.0017 </r>
        <r>  0.0008  0.0033  0.0017 </r>
        <r>  0.0000  0.0023  0.0018 </r>
        <r>  0.0004  0.0043  0.0031 </r>
        <r>  0.0010  0.0013  0.0031 </r>
        <r>  0.0005  0.0060  0.0023 </r>
        <r>  0.0004  0.0043  0.0020 </r>
        <r>  0.0011  0.0016  0.0034 </r>
        <r>  0.0001  0.0040  0.0021 </r>
        <r>  0.0003  0.0041  0.0027 </r>
       </set>
       <set comment="band 109">
        <r>  0.0007  0.0009  0.0155 </r>
        <r>  0.0013  0.0006  0.0437 </r>
        <r>  0.0001  0.0007  0.0236 </r>
        <r>  0.0073  0.0044  0.0225 </r>
        <r>  0.0001  0.0096  0.0005 </r>
        <r>  0.0000  0.0032  0.0010 </r>
        <r>  0.0000  0.0038  0.0009 </r>
        <r>  0.0001  0.0035  0.0009 </r>
        <r>  0.0001  0.0034  0.0017 </r>
        <r>  0.0001  0.0039  0.0010 </r>
        <r>  0.0011  0.0095  0.0032 </r>
        <r>  0.0000  0.0009  0.0015 </r>
        <r>  0.0007  0.0031  0.0014 </r>
        <r>  0.0012  0.0072  0.0033 </r>
        <r>  0.0007  0.0008  0.0012 </r>
        <r>  0.0023  0.0023  0.0039 </r>
        <r>  0.0013  0.0007  0.0017 </r>
        <r>  0.0017  0.0064  0.0031 </r>
        <r>  0.0017  0.0047  0.0037 </r>
        <r>  0.0002  0.0016  0.0014 </r>
       </set>
       <set comment="band 110">
        <r>  0.0073  0.0043  0.0226 </r>
        <r>  0.0001  0.0007  0.0237 </r>
        <r>  0.0013  0.0006  0.0441 </r>
        <r>  0.0006  0.0009  0.0158 </r>
        <r>  0.0001  0.0034  0.0009 </r>
        <r>  0.0000  0.0037  0.0008 </r>
        <r>  0.0000  0.0032  0.0010 </r>
        <r>  0.0001  0.0096  0.0005 </r>
        <r>  0.0000  0.0009  0.0015 </r>
        <r>  0.0011  0.0095  0.0032 </r>
        <r>  0.0001  0.0039  0.0009 </r>
        <r>  0.0001  0.0034  0.0017 </r>
        <r>  0.0023  0.0024  0.0039 </r>
        <r>  0.0007  0.0008  0.0012 </r>
        <r>  0.0012  0.0072  0.0033 </r>
        <r>  0.0006  0.0030  0.0014 </r>
        <r>  0.0016  0.0045  0.0037 </r>
        <r>  0.0002  0.0016  0.0014 </r>
        <r>  0.0014  0.0008  0.0017 </r>
        <r>  0.0017  0.0063  0.0032 </r>
       </set>
       <set comment="band 111">
        <r>  0.0001  0.0007  0.0173 </r>
        <r>  0.0015  0.0063  0.0494 </r>
        <r>  0.0002  0.0012  0.0223 </r>
        <r>  0.0011  0.0021  0.0284 </r>
        <r>  0.0000  0.0056  0.0002 </r>
        <r>  0.0002  0.0025  0.0003 </r>
        <r>  0.0004  0.0080  0.0002 </r>
        <r>  0.0000  0.0025  0.0004 </r>
        <r>  0.0004  0.0079  0.0019 </r>
        <r>  0.0000  0.0023  0.0010 </r>
        <r>  0.0002  0.0050  0.0021 </r>
        <r>  0.0000  0.0028  0.0008 </r>
        <r>  0.0029  0.0034  0.0016 </r>
        <r>  0.0020  0.0073  0.0027 </r>
        <r>  0.0006  0.0006  0.0015 </r>
        <r>  0.0010  0.0032  0.0028 </r>
        <r>  0.0006  0.0015  0.0012 </r>
        <r>  0.0018  0.0040  0.0039 </r>
        <r>  0.0033  0.0050  0.0032 </r>
        <r>  0.0008  0.0039  0.0003 </r>
       </set>
       <set comment="band 112">
        <r>  0.0010  0.0020  0.0275 </r>
        <r>  0.0006  0.0012  0.0215 </r>
        <r>  0.0014  0.0057  0.0521 </r>
        <r>  0.0004  0.0011  0.0155 </r>
        <r>  0.0000  0.0021  0.0003 </r>
        <r>  0.0003  0.0084  0.0002 </r>
        <r>  0.0002  0.0023  0.0003 </r>
        <r>  0.0001  0.0058  0.0004 </r>
        <r>  0.0001  0.0027  0.0008 </r>
        <r>  0.0001  0.0051  0.0022 </r>
        <r>  0.0000  0.0022  0.0009 </r>
        <r>  0.0004  0.0070  0.0018 </r>
        <r>  0.0009  0.0024  0.0032 </r>
        <r>  0.0007  0.0004  0.0015 </r>
        <r>  0.0017  0.0071  0.0027 </r>
        <r>  0.0036  0.0034  0.0022 </r>
        <r>  0.0033  0.0053  0.0030 </r>
        <r>  0.0009  0.0040  0.0003 </r>
        <r>  0.0003  0.0014  0.0013 </r>
        <r>  0.0021  0.0041  0.0037 </r>
       </set>
      </set>
     </set>
    </set>
   </array>
  </projected>
 </calculation>
 <structure name="finalpos" >
  <crystal>
   <varray name="basis" >
    <v>       8.84101848       0.00000000       0.00000000 </v>
    <v>       0.00000000      11.41869441       0.00000000 </v>
    <v>       0.00000000       0.00000000       8.48187958 </v>
   </varray>
   <i name="volume">    856.27024142 </i>
   <varray name="rec_basis" >
    <v>       0.11310914       0.00000000       0.00000000 </v>
    <v>       0.00000000       0.08757569       0.00000000 </v>
    <v>       0.00000000       0.00000000       0.11789840 </v>
   </varray>
  </crystal>
  <varray name="positions" >
   <v>       0.05422345       0.25000000       0.48323875 </v>
   <v>       0.44577655       0.75000000       0.98323875 </v>
   <v>       0.55422345       0.25000000       0.01676125 </v>
   <v>       0.94577655       0.75000000       0.51676125 </v>
   <v>       0.00000000       0.00000000       0.00000000 </v>
   <v>       0.50000000       0.00000000       0.50000000 </v>
   <v>       0.50000000       0.50000000       0.50000000 </v>
   <v>       0.00000000       0.50000000       0.00000000 </v>
   <v>       0.52670607       0.75000000       0.41365717 </v>
   <v>       0.97329393       0.25000000       0.91365717 </v>
   <v>       0.02670607       0.75000000       0.08634283 </v>
   <v>       0.47329393       0.25000000       0.58634283 </v>
   <v>       0.27901609       0.46206422       0.21956248 </v>
   <v>       0.22098391       0.53793578       0.71956248 </v>
   <v>       0.77901609       0.03793578       0.28043752 </v>
   <v>       0.72098391       0.96206422       0.78043752 </v>
   <v>       0.27901609       0.03793578       0.21956248 </v>
   <v>       0.22098391       0.96206422       0.71956248 </v>
   <v>       0.72098391       0.53793578       0.78043752 </v>
   <v>       0.77901609       0.46206422       0.28043752 </v>
  </varray>
 </structure>
</modeling>
