CsPbBr3 cubic bulk                      
           1
     8.841018    0.000000    0.000000
     0.000000   11.418694    0.000000
     0.000000    0.000000    8.481880
   Cs   Pb   Br
   4   4  12
Direct configuration=     1
   0.05422345  0.25000000  0.48323875
   0.44577655  0.75000000  0.98323875
   0.55422345  0.25000000  0.01676125
   0.94577655  0.75000000  0.51676125
   0.00000000  0.00000000  0.00000000
   0.50000000  0.00000000  0.50000000
   0.50000000  0.50000000  0.50000000
   0.00000000  0.50000000  0.00000000
   0.52670607  0.75000000  0.41365717
   0.97329393  0.25000000  0.91365717
   0.02670607  0.75000000  0.08634283
   0.47329393  0.25000000  0.58634283
   0.27901609  0.46206422  0.21956248
   0.22098391  0.53793578  0.71956248
   0.77901609  0.03793578  0.28043752
   0.72098391  0.96206422  0.78043752
   0.27901609  0.03793578  0.21956248
   0.22098391  0.96206422  0.71956248
   0.72098391  0.53793578  0.78043752
   0.77901609  0.46206422  0.28043752
