  39  39   1   0
  0.4089970E+02  0.1166870E-08  0.1172985E-08  0.1166870E-08  0.5000000E-15
   1.0000000000000000E-004
  CAR 
 CsPbBr3 cubic bulk                      
      8.05249225    -22.30663428  301      0.48800989      1.00000000
    -22.307  0.0000E+00  0.0000E+00
    -22.205  0.0000E+00  0.0000E+00
    -22.104  0.0000E+00  0.0000E+00
    -22.003  0.0000E+00  0.0000E+00
    -21.902  0.0000E+00  0.0000E+00
    -21.801  0.0000E+00  0.0000E+00
    -21.699  0.0000E+00  0.0000E+00
    -21.598  0.0000E+00  0.0000E+00
    -21.497  0.0000E+00  0.0000E+00
    -21.396  0.0000E+00  0.0000E+00
    -21.295  0.0000E+00  0.0000E+00
    -21.193  0.0000E+00  0.0000E+00
    -21.092  0.0000E+00  0.0000E+00
    -20.991  0.0000E+00  0.0000E+00
    -20.890  0.1976E+02  0.2000E+01
    -20.789  0.3929E+02  0.5976E+01
    -20.687  0.6240E+02  0.1232E+02
    -20.586  0.0000E+00  0.1600E+02
    -20.485  0.0000E+00  0.1600E+02
    -20.384  0.0000E+00  0.1600E+02
    -20.283  0.0000E+00  0.1600E+02
    -20.181  0.0000E+00  0.1600E+02
    -20.080  0.0000E+00  0.1600E+02
    -19.979  0.0000E+00  0.1600E+02
    -19.878  0.0000E+00  0.1600E+02
    -19.777  0.0000E+00  0.1600E+02
    -19.676  0.0000E+00  0.1600E+02
    -19.574  0.0000E+00  0.1600E+02
    -19.473  0.0000E+00  0.1600E+02
    -19.372  0.0000E+00  0.1600E+02
    -19.271  0.0000E+00  0.1600E+02
    -19.170  0.0000E+00  0.1600E+02
    -19.068  0.0000E+00  0.1600E+02
    -18.967  0.0000E+00  0.1600E+02
    -18.866  0.0000E+00  0.1600E+02
    -18.765  0.0000E+00  0.1600E+02
    -18.664  0.0000E+00  0.1600E+02
    -18.562  0.0000E+00  0.1600E+02
    -18.461  0.0000E+00  0.1600E+02
    -18.360  0.0000E+00  0.1600E+02
    -18.259  0.0000E+00  0.1600E+02
    -18.158  0.0000E+00  0.1600E+02
    -18.056  0.0000E+00  0.1600E+02
    -17.955  0.0000E+00  0.1600E+02
    -17.854  0.0000E+00  0.1600E+02
    -17.753  0.0000E+00  0.1600E+02
    -17.652  0.0000E+00  0.1600E+02
    -17.550  0.0000E+00  0.1600E+02
    -17.449  0.0000E+00  0.1600E+02
    -17.348  0.0000E+00  0.1600E+02
    -17.247  0.0000E+00  0.1600E+02
    -17.146  0.0000E+00  0.1600E+02
    -17.044  0.0000E+00  0.1600E+02
    -16.943  0.0000E+00  0.1600E+02
    -16.842  0.2816E+01  0.1628E+02
    -16.741  0.5609E-10  0.1800E+02
    -16.640  0.7719E+02  0.2581E+02
    -16.538  0.9731E+02  0.3585E+02
    -16.437  0.3718E+02  0.4176E+02
    -16.336  0.1634E+03  0.6028E+02
    -16.235  0.2371E+03  0.8800E+02
    -16.134  0.7905E+02  0.9600E+02
    -16.032  0.0000E+00  0.9600E+02
    -15.931  0.0000E+00  0.9600E+02
    -15.830  0.0000E+00  0.9600E+02
    -15.729  0.0000E+00  0.9600E+02
    -15.628  0.0000E+00  0.9600E+02
    -15.526  0.0000E+00  0.9600E+02
    -15.425  0.0000E+00  0.9600E+02
    -15.324  0.0000E+00  0.9600E+02
    -15.223  0.0000E+00  0.9600E+02
    -15.122  0.0000E+00  0.9600E+02
    -15.020  0.0000E+00  0.9600E+02
    -14.919  0.0000E+00  0.9600E+02
    -14.818  0.0000E+00  0.9600E+02
    -14.717  0.0000E+00  0.9600E+02
    -14.616  0.2469E+00  0.9602E+02
    -14.514  0.0000E+00  0.9800E+02
    -14.413  0.6046E-01  0.9801E+02
    -14.312  0.3385E+02  0.1019E+03
    -14.211  0.2928E+02  0.1052E+03
    -14.110  0.3749E+02  0.1103E+03
    -14.008  0.7743E+02  0.1203E+03
    -13.907  0.7167E+02  0.1283E+03
    -13.806  0.5336E+02  0.1354E+03
    -13.705  0.3517E+02  0.1406E+03
    -13.604  0.7411E+01  0.1420E+03
    -13.502  0.0000E+00  0.1420E+03
    -13.401  0.0000E+00  0.1420E+03
    -13.300  0.0000E+00  0.1420E+03
    -13.199  0.0000E+00  0.1420E+03
    -13.098  0.0000E+00  0.1420E+03
    -12.997  0.0000E+00  0.1420E+03
    -12.895  0.0000E+00  0.1420E+03
    -12.794  0.0000E+00  0.1420E+03
    -12.693  0.0000E+00  0.1420E+03
    -12.592  0.0000E+00  0.1420E+03
    -12.491  0.0000E+00  0.1420E+03
    -12.389  0.0000E+00  0.1420E+03
    -12.288  0.0000E+00  0.1420E+03
    -12.187  0.0000E+00  0.1420E+03
    -12.086  0.0000E+00  0.1420E+03
    -11.985  0.0000E+00  0.1420E+03
    -11.883  0.0000E+00  0.1420E+03
    -11.782  0.0000E+00  0.1420E+03
    -11.681  0.0000E+00  0.1420E+03
    -11.580  0.0000E+00  0.1420E+03
    -11.479  0.0000E+00  0.1420E+03
    -11.377  0.0000E+00  0.1420E+03
    -11.276  0.0000E+00  0.1420E+03
    -11.175  0.0000E+00  0.1420E+03
    -11.074  0.0000E+00  0.1420E+03
    -10.973  0.0000E+00  0.1420E+03
    -10.871  0.0000E+00  0.1420E+03
    -10.770  0.0000E+00  0.1420E+03
    -10.669  0.0000E+00  0.1420E+03
    -10.568  0.0000E+00  0.1420E+03
    -10.467  0.0000E+00  0.1420E+03
    -10.365  0.0000E+00  0.1420E+03
    -10.264  0.0000E+00  0.1420E+03
    -10.163  0.0000E+00  0.1420E+03
    -10.062  0.0000E+00  0.1420E+03
     -9.961  0.0000E+00  0.1420E+03
     -9.859  0.0000E+00  0.1420E+03
     -9.758  0.0000E+00  0.1420E+03
     -9.657  0.0000E+00  0.1420E+03
     -9.556  0.0000E+00  0.1420E+03
     -9.455  0.0000E+00  0.1420E+03
     -9.353  0.0000E+00  0.1420E+03
     -9.252  0.0000E+00  0.1420E+03
     -9.151  0.0000E+00  0.1420E+03
     -9.050  0.0000E+00  0.1420E+03
     -8.949  0.0000E+00  0.1420E+03
     -8.847  0.0000E+00  0.1420E+03
     -8.746  0.0000E+00  0.1420E+03
     -8.645  0.0000E+00  0.1420E+03
     -8.544  0.0000E+00  0.1420E+03
     -8.443  0.0000E+00  0.1420E+03
     -8.341  0.0000E+00  0.1420E+03
     -8.240  0.5601E-07  0.1420E+03
     -8.139  0.2470E+01  0.1422E+03
     -8.038  0.4321E+01  0.1427E+03
     -7.937  0.1013E+02  0.1438E+03
     -7.835  0.7492E+01  0.1448E+03
     -7.734  0.1447E+02  0.1465E+03
     -7.633  0.1732E+02  0.1488E+03
     -7.532  0.2509E+01  0.1493E+03
     -7.431  0.2090E+02  0.1524E+03
     -7.329  0.2931E+02  0.1555E+03
     -7.228  0.6882E+02  0.1640E+03
     -7.127  0.2037E+03  0.1876E+03
     -7.026  0.1325E+03  0.2042E+03
     -6.925  0.3168E+01  0.2046E+03
     -6.823  0.7216E+01  0.2057E+03
     -6.722  0.0000E+00  0.2058E+03
     -6.621  0.1580E-07  0.2058E+03
     -6.520  0.2470E+01  0.2060E+03
     -6.419  0.0000E+00  0.2060E+03
     -6.317  0.0000E+00  0.2060E+03
     -6.216  0.0000E+00  0.2060E+03
     -6.115  0.0000E+00  0.2060E+03
     -6.014  0.0000E+00  0.2060E+03
     -5.913  0.0000E+00  0.2060E+03
     -5.812  0.0000E+00  0.2060E+03
     -5.710  0.0000E+00  0.2060E+03
     -5.609  0.0000E+00  0.2060E+03
     -5.508  0.0000E+00  0.2060E+03
     -5.407  0.0000E+00  0.2060E+03
     -5.306  0.0000E+00  0.2060E+03
     -5.204  0.0000E+00  0.2060E+03
     -5.103  0.0000E+00  0.2060E+03
     -5.002  0.0000E+00  0.2060E+03
     -4.901  0.0000E+00  0.2060E+03
     -4.800  0.0000E+00  0.2060E+03
     -4.698  0.0000E+00  0.2060E+03
     -4.597  0.0000E+00  0.2060E+03
     -4.496  0.0000E+00  0.2060E+03
     -4.395  0.0000E+00  0.2060E+03
     -4.294  0.0000E+00  0.2060E+03
     -4.192  0.0000E+00  0.2060E+03
     -4.091  0.0000E+00  0.2060E+03
     -3.990  0.0000E+00  0.2060E+03
     -3.889  0.0000E+00  0.2060E+03
     -3.788  0.0000E+00  0.2060E+03
     -3.686  0.0000E+00  0.2060E+03
     -3.585  0.0000E+00  0.2060E+03
     -3.484  0.0000E+00  0.2060E+03
     -3.383  0.3537E+00  0.2060E+03
     -3.282  0.3673E+02  0.2102E+03
     -3.180  0.3489E+02  0.2145E+03
     -3.079  0.2124E+02  0.2171E+03
     -2.978  0.1024E+02  0.2190E+03
     -2.877  0.4689E+01  0.2200E+03
     -2.776  0.6208E+01  0.2206E+03
     -2.674  0.1109E+02  0.2219E+03
     -2.573  0.3127E+02  0.2259E+03
     -2.472  0.2594E+02  0.2294E+03
     -2.371  0.3725E+02  0.2338E+03
     -2.270  0.4102E+02  0.2384E+03
     -2.168  0.2476E+02  0.2415E+03
     -2.067  0.1994E+02  0.2445E+03
     -1.966  0.4721E+02  0.2503E+03
     -1.865  0.1674E+02  0.2527E+03
     -1.764  0.4324E+02  0.2581E+03
     -1.662  0.4944E+02  0.2638E+03
     -1.561  0.6401E+02  0.2715E+03
     -1.460  0.5932E+02  0.2790E+03
     -1.359  0.1024E+03  0.2919E+03
     -1.258  0.9098E+02  0.3040E+03
     -1.156  0.6794E+02  0.3131E+03
     -1.055  0.6810E+02  0.3234E+03
     -0.954  0.3238E+02  0.3288E+03
     -0.853  0.3316E+02  0.3326E+03
     -0.752  0.1113E+02  0.3344E+03
     -0.650  0.1162E+02  0.3357E+03
     -0.549  0.1511E+02  0.3373E+03
     -0.448  0.9132E+01  0.3384E+03
     -0.347  0.1446E+02  0.3402E+03
     -0.246  0.8916E+01  0.3414E+03
     -0.144  0.2470E+01  0.3420E+03
     -0.043  0.1418E-04  0.3420E+03
      0.058  0.1139E+02  0.3432E+03
      0.159  0.4333E+01  0.3437E+03
      0.260  0.0000E+00  0.3438E+03
      0.362  0.0000E+00  0.3438E+03
      0.463  0.2470E+01  0.3440E+03
      0.564  0.0000E+00  0.3440E+03
      0.665  0.0000E+00  0.3440E+03
      0.766  0.0000E+00  0.3440E+03
      0.867  0.0000E+00  0.3440E+03
      0.969  0.0000E+00  0.3440E+03
      1.070  0.0000E+00  0.3440E+03
      1.171  0.0000E+00  0.3440E+03
      1.272  0.0000E+00  0.3440E+03
      1.373  0.0000E+00  0.3440E+03
      1.475  0.0000E+00  0.3440E+03
      1.576  0.0000E+00  0.3440E+03
      1.677  0.0000E+00  0.3440E+03
      1.778  0.0000E+00  0.3440E+03
      1.879  0.0000E+00  0.3440E+03
      1.981  0.0000E+00  0.3440E+03
      2.082  0.0000E+00  0.3440E+03
      2.183  0.0000E+00  0.3440E+03
      2.284  0.0000E+00  0.3440E+03
      2.385  0.0000E+00  0.3440E+03
      2.487  0.0000E+00  0.3440E+03
      2.588  0.1836E+01  0.3442E+03
      2.689  0.3052E+01  0.3446E+03
      2.790  0.1038E+02  0.3458E+03
      2.891  0.5002E+01  0.3468E+03
      2.993  0.1688E+02  0.3487E+03
      3.094  0.8407E+01  0.3499E+03
      3.195  0.1771E+02  0.3520E+03
      3.296  0.1303E+02  0.3536E+03
      3.397  0.2259E+02  0.3563E+03
      3.499  0.4771E+01  0.3572E+03
      3.600  0.3449E+01  0.3578E+03
      3.701  0.0000E+00  0.3580E+03
      3.802  0.0000E+00  0.3580E+03
      3.903  0.0000E+00  0.3580E+03
      4.005  0.0000E+00  0.3580E+03
      4.106  0.1331E+02  0.3593E+03
      4.207  0.1694E+01  0.3597E+03
      4.308  0.1507E+02  0.3613E+03
      4.409  0.3121E+02  0.3649E+03
      4.511  0.1925E+02  0.3674E+03
      4.612  0.2860E+02  0.3706E+03
      4.713  0.1826E+02  0.3731E+03
      4.814  0.2947E+02  0.3767E+03
      4.915  0.1486E+02  0.3795E+03
      5.017  0.2470E+01  0.3802E+03
      5.118  0.0000E+00  0.3802E+03
      5.219  0.2855E-01  0.3803E+03
      5.320  0.9607E+01  0.3815E+03
      5.421  0.4941E+01  0.3820E+03
      5.523  0.7497E+01  0.3828E+03
      5.624  0.1233E+02  0.3842E+03
      5.725  0.6106E+01  0.3849E+03
      5.826  0.1725E+02  0.3872E+03
      5.927  0.2224E+02  0.3903E+03
      6.029  0.1896E+02  0.3929E+03
      6.130  0.2902E+02  0.3964E+03
      6.231  0.2094E+02  0.3999E+03
      6.332  0.3168E+02  0.4045E+03
      6.433  0.3539E+02  0.4088E+03
      6.535  0.2482E+02  0.4120E+03
      6.636  0.2301E+02  0.4153E+03
      6.737  0.2470E+01  0.4160E+03
      6.838  0.0000E+00  0.4160E+03
      6.939  0.0000E+00  0.4160E+03
      7.041  0.0000E+00  0.4160E+03
      7.142  0.0000E+00  0.4160E+03
      7.243  0.0000E+00  0.4160E+03
      7.344  0.0000E+00  0.4160E+03
      7.445  0.0000E+00  0.4160E+03
      7.547  0.0000E+00  0.4160E+03
      7.648  0.0000E+00  0.4160E+03
      7.749  0.0000E+00  0.4160E+03
      7.850  0.0000E+00  0.4160E+03
      7.951  0.0000E+00  0.4160E+03
      8.052  0.0000E+00  0.4160E+03
      8.05249225    -22.30663428  301      0.48800989      1.00000000
    -22.307  0.0000E+00  0.0000E+00  0.0000E+00
    -22.205  0.0000E+00  0.0000E+00  0.0000E+00
    -22.104  0.0000E+00  0.0000E+00  0.0000E+00
    -22.003  0.0000E+00  0.0000E+00  0.0000E+00
    -21.902  0.0000E+00  0.0000E+00  0.0000E+00
    -21.801  0.0000E+00  0.0000E+00  0.0000E+00
    -21.699  0.0000E+00  0.0000E+00  0.0000E+00
    -21.598  0.0000E+00  0.0000E+00  0.0000E+00
    -21.497  0.0000E+00  0.0000E+00  0.0000E+00
    -21.396  0.0000E+00  0.0000E+00  0.0000E+00
    -21.295  0.0000E+00  0.0000E+00  0.0000E+00
    -21.193  0.0000E+00  0.0000E+00  0.0000E+00
    -21.092  0.0000E+00  0.0000E+00  0.0000E+00
    -20.991  0.0000E+00  0.0000E+00  0.0000E+00
    -20.890  0.1615E-03  0.1513E-06  0.2023E-07
    -20.789  0.8390E-03  0.2166E-06  0.2797E-07
    -20.687  0.2526E+01  0.2331E-05  0.9366E-07
    -20.586  0.0000E+00  0.0000E+00  0.0000E+00
    -20.485  0.0000E+00  0.0000E+00  0.0000E+00
    -20.384  0.0000E+00  0.0000E+00  0.0000E+00
    -20.283  0.0000E+00  0.0000E+00  0.0000E+00
    -20.181  0.0000E+00  0.0000E+00  0.0000E+00
    -20.080  0.0000E+00  0.0000E+00  0.0000E+00
    -19.979  0.0000E+00  0.0000E+00  0.0000E+00
    -19.878  0.0000E+00  0.0000E+00  0.0000E+00
    -19.777  0.0000E+00  0.0000E+00  0.0000E+00
    -19.676  0.0000E+00  0.0000E+00  0.0000E+00
    -19.574  0.0000E+00  0.0000E+00  0.0000E+00
    -19.473  0.0000E+00  0.0000E+00  0.0000E+00
    -19.372  0.0000E+00  0.0000E+00  0.0000E+00
    -19.271  0.0000E+00  0.0000E+00  0.0000E+00
    -19.170  0.0000E+00  0.0000E+00  0.0000E+00
    -19.068  0.0000E+00  0.0000E+00  0.0000E+00
    -18.967  0.0000E+00  0.0000E+00  0.0000E+00
    -18.866  0.0000E+00  0.0000E+00  0.0000E+00
    -18.765  0.0000E+00  0.0000E+00  0.0000E+00
    -18.664  0.0000E+00  0.0000E+00  0.0000E+00
    -18.562  0.0000E+00  0.0000E+00  0.0000E+00
    -18.461  0.0000E+00  0.0000E+00  0.0000E+00
    -18.360  0.0000E+00  0.0000E+00  0.0000E+00
    -18.259  0.0000E+00  0.0000E+00  0.0000E+00
    -18.158  0.0000E+00  0.0000E+00  0.0000E+00
    -18.056  0.0000E+00  0.0000E+00  0.0000E+00
    -17.955  0.0000E+00  0.0000E+00  0.0000E+00
    -17.854  0.0000E+00  0.0000E+00  0.0000E+00
    -17.753  0.0000E+00  0.0000E+00  0.0000E+00
    -17.652  0.0000E+00  0.0000E+00  0.0000E+00
    -17.550  0.0000E+00  0.0000E+00  0.0000E+00
    -17.449  0.0000E+00  0.0000E+00  0.0000E+00
    -17.348  0.0000E+00  0.0000E+00  0.0000E+00
    -17.247  0.0000E+00  0.0000E+00  0.0000E+00
    -17.146  0.0000E+00  0.0000E+00  0.0000E+00
    -17.044  0.0000E+00  0.0000E+00  0.0000E+00
    -16.943  0.0000E+00  0.0000E+00  0.0000E+00
    -16.842  0.5220E-07  0.6568E-07  0.1836E-07
    -16.741  0.3169E-17  0.1435E-17  0.1585E-18
    -16.640  0.2496E-04  0.2356E-04  0.5624E-05
    -16.538  0.1545E-04  0.7098E-05  0.1003E-05
    -16.437  0.9413E-05  0.1025E-04  0.2808E-05
    -16.336  0.5070E-04  0.6623E-04  0.1165E-04
    -16.235  0.6872E-04  0.4153E-04  0.5276E-05
    -16.134  0.4608E-05  0.2724E-05  0.3135E-06
    -16.032  0.0000E+00  0.0000E+00  0.0000E+00
    -15.931  0.0000E+00  0.0000E+00  0.0000E+00
    -15.830  0.0000E+00  0.0000E+00  0.0000E+00
    -15.729  0.0000E+00  0.0000E+00  0.0000E+00
    -15.628  0.0000E+00  0.0000E+00  0.0000E+00
    -15.526  0.0000E+00  0.0000E+00  0.0000E+00
    -15.425  0.0000E+00  0.0000E+00  0.0000E+00
    -15.324  0.0000E+00  0.0000E+00  0.0000E+00
    -15.223  0.0000E+00  0.0000E+00  0.0000E+00
    -15.122  0.0000E+00  0.0000E+00  0.0000E+00
    -15.020  0.0000E+00  0.0000E+00  0.0000E+00
    -14.919  0.0000E+00  0.0000E+00  0.0000E+00
    -14.818  0.0000E+00  0.0000E+00  0.0000E+00
    -14.717  0.0000E+00  0.0000E+00  0.0000E+00
    -14.616  0.6936E-05  0.3663E-05  0.1243E-06
    -14.514  0.0000E+00  0.0000E+00  0.0000E+00
    -14.413  0.9882E-05  0.1718E-05  0.9635E-07
    -14.312  0.1614E-02  0.1770E-02  0.4683E-04
    -14.211  0.2711E-02  0.2421E-02  0.5114E-04
    -14.110  0.4476E-03  0.2430E-02  0.1031E-03
    -14.008  0.1896E-02  0.5546E-02  0.3974E-03
    -13.907  0.1223E-02  0.3856E-02  0.4365E-03
    -13.806  0.8354E-03  0.2227E-02  0.3580E-03
    -13.705  0.9024E-03  0.1620E-02  0.1571E-03
    -13.604  0.1921E-03  0.3365E-03  0.4690E-04
    -13.502  0.0000E+00  0.0000E+00  0.0000E+00
    -13.401  0.0000E+00  0.0000E+00  0.0000E+00
    -13.300  0.0000E+00  0.0000E+00  0.0000E+00
    -13.199  0.0000E+00  0.0000E+00  0.0000E+00
    -13.098  0.0000E+00  0.0000E+00  0.0000E+00
    -12.997  0.0000E+00  0.0000E+00  0.0000E+00
    -12.895  0.0000E+00  0.0000E+00  0.0000E+00
    -12.794  0.0000E+00  0.0000E+00  0.0000E+00
    -12.693  0.0000E+00  0.0000E+00  0.0000E+00
    -12.592  0.0000E+00  0.0000E+00  0.0000E+00
    -12.491  0.0000E+00  0.0000E+00  0.0000E+00
    -12.389  0.0000E+00  0.0000E+00  0.0000E+00
    -12.288  0.0000E+00  0.0000E+00  0.0000E+00
    -12.187  0.0000E+00  0.0000E+00  0.0000E+00
    -12.086  0.0000E+00  0.0000E+00  0.0000E+00
    -11.985  0.0000E+00  0.0000E+00  0.0000E+00
    -11.883  0.0000E+00  0.0000E+00  0.0000E+00
    -11.782  0.0000E+00  0.0000E+00  0.0000E+00
    -11.681  0.0000E+00  0.0000E+00  0.0000E+00
    -11.580  0.0000E+00  0.0000E+00  0.0000E+00
    -11.479  0.0000E+00  0.0000E+00  0.0000E+00
    -11.377  0.0000E+00  0.0000E+00  0.0000E+00
    -11.276  0.0000E+00  0.0000E+00  0.0000E+00
    -11.175  0.0000E+00  0.0000E+00  0.0000E+00
    -11.074  0.0000E+00  0.0000E+00  0.0000E+00
    -10.973  0.0000E+00  0.0000E+00  0.0000E+00
    -10.871  0.0000E+00  0.0000E+00  0.0000E+00
    -10.770  0.0000E+00  0.0000E+00  0.0000E+00
    -10.669  0.0000E+00  0.0000E+00  0.0000E+00
    -10.568  0.0000E+00  0.0000E+00  0.0000E+00
    -10.467  0.0000E+00  0.0000E+00  0.0000E+00
    -10.365  0.0000E+00  0.0000E+00  0.0000E+00
    -10.264  0.0000E+00  0.0000E+00  0.0000E+00
    -10.163  0.0000E+00  0.0000E+00  0.0000E+00
    -10.062  0.0000E+00  0.0000E+00  0.0000E+00
     -9.961  0.0000E+00  0.0000E+00  0.0000E+00
     -9.859  0.0000E+00  0.0000E+00  0.0000E+00
     -9.758  0.0000E+00  0.0000E+00  0.0000E+00
     -9.657  0.0000E+00  0.0000E+00  0.0000E+00
     -9.556  0.0000E+00  0.0000E+00  0.0000E+00
     -9.455  0.0000E+00  0.0000E+00  0.0000E+00
     -9.353  0.0000E+00  0.0000E+00  0.0000E+00
     -9.252  0.0000E+00  0.0000E+00  0.0000E+00
     -9.151  0.0000E+00  0.0000E+00  0.0000E+00
     -9.050  0.0000E+00  0.0000E+00  0.0000E+00
     -8.949  0.0000E+00  0.0000E+00  0.0000E+00
     -8.847  0.0000E+00  0.0000E+00  0.0000E+00
     -8.746  0.0000E+00  0.0000E+00  0.0000E+00
     -8.645  0.0000E+00  0.0000E+00  0.0000E+00
     -8.544  0.0000E+00  0.0000E+00  0.0000E+00
     -8.443  0.0000E+00  0.0000E+00  0.0000E+00
     -8.341  0.0000E+00  0.0000E+00  0.0000E+00
     -8.240  0.3009E-14  0.2351E-11  0.2635E-12
     -8.139  0.1327E-06  0.1037E-03  0.1162E-04
     -8.038  0.1887E-06  0.5330E-03  0.2109E-04
     -7.937  0.2603E-06  0.4541E-02  0.3177E-04
     -7.835  0.3451E-06  0.5362E-02  0.2307E-04
     -7.734  0.4766E-05  0.1160E-01  0.3070E-04
     -7.633  0.1217E-04  0.3191E-01  0.4632E-04
     -7.532  0.2168E-05  0.3851E-02  0.5083E-05
     -7.431  0.3060E-04  0.8863E-01  0.7008E-04
     -7.329  0.1219E-04  0.2865E-01  0.2864E-04
     -7.228  0.3174E-04  0.3149E+00  0.3751E-04
     -7.127  0.5681E-04  0.1815E+01  0.6553E-04
     -7.026  0.8565E-04  0.4140E+02  0.7715E-04
     -6.925  0.1596E-04  0.2990E-01  0.3810E-05
     -6.823  0.3127E-04  0.6094E-01  0.9695E-05
     -6.722  0.0000E+00  0.0000E+00  0.0000E+00
     -6.621  0.5757E-13  0.5089E-10  0.7064E-14
     -6.520  0.9001E-05  0.7957E-02  0.1105E-05
     -6.419  0.0000E+00  0.0000E+00  0.0000E+00
     -6.317  0.0000E+00  0.0000E+00  0.0000E+00
     -6.216  0.0000E+00  0.0000E+00  0.0000E+00
     -6.115  0.0000E+00  0.0000E+00  0.0000E+00
     -6.014  0.0000E+00  0.0000E+00  0.0000E+00
     -5.913  0.0000E+00  0.0000E+00  0.0000E+00
     -5.812  0.0000E+00  0.0000E+00  0.0000E+00
     -5.710  0.0000E+00  0.0000E+00  0.0000E+00
     -5.609  0.0000E+00  0.0000E+00  0.0000E+00
     -5.508  0.0000E+00  0.0000E+00  0.0000E+00
     -5.407  0.0000E+00  0.0000E+00  0.0000E+00
     -5.306  0.0000E+00  0.0000E+00  0.0000E+00
     -5.204  0.0000E+00  0.0000E+00  0.0000E+00
     -5.103  0.0000E+00  0.0000E+00  0.0000E+00
     -5.002  0.0000E+00  0.0000E+00  0.0000E+00
     -4.901  0.0000E+00  0.0000E+00  0.0000E+00
     -4.800  0.0000E+00  0.0000E+00  0.0000E+00
     -4.698  0.0000E+00  0.0000E+00  0.0000E+00
     -4.597  0.0000E+00  0.0000E+00  0.0000E+00
     -4.496  0.0000E+00  0.0000E+00  0.0000E+00
     -4.395  0.0000E+00  0.0000E+00  0.0000E+00
     -4.294  0.0000E+00  0.0000E+00  0.0000E+00
     -4.192  0.0000E+00  0.0000E+00  0.0000E+00
     -4.091  0.0000E+00  0.0000E+00  0.0000E+00
     -3.990  0.0000E+00  0.0000E+00  0.0000E+00
     -3.889  0.0000E+00  0.0000E+00  0.0000E+00
     -3.788  0.0000E+00  0.0000E+00  0.0000E+00
     -3.686  0.0000E+00  0.0000E+00  0.0000E+00
     -3.585  0.0000E+00  0.0000E+00  0.0000E+00
     -3.484  0.0000E+00  0.0000E+00  0.0000E+00
     -3.383  0.1798E-08  0.3498E-03  0.1611E-05
     -3.282  0.1164E-03  0.2116E-01  0.1644E-02
     -3.180  0.6071E-03  0.2171E-01  0.1934E-02
     -3.079  0.6578E-04  0.8611E-02  0.9147E-03
     -2.978  0.1812E-05  0.1668E-02  0.1715E-03
     -2.877  0.3325E-05  0.5389E-03  0.1376E-03
     -2.776  0.1414E-04  0.4441E-02  0.2733E-03
     -2.674  0.1145E-02  0.1160E-01  0.5721E-03
     -2.573  0.1649E-02  0.2869E-01  0.1419E-02
     -2.472  0.1848E-02  0.1913E-01  0.1164E-02
     -2.371  0.2165E-02  0.2869E-01  0.2431E-02
     -2.270  0.4002E-02  0.2244E-01  0.3239E-02
     -2.168  0.7220E-02  0.8027E-02  0.2440E-02
     -2.067  0.7167E-02  0.1588E-01  0.1676E-02
     -1.966  0.1259E-01  0.5175E-01  0.5291E-02
     -1.865  0.1283E-02  0.3563E-01  0.2264E-02
     -1.764  0.2989E-02  0.1042E+00  0.6195E-02
     -1.662  0.5180E-02  0.7896E-01  0.8521E-02
     -1.561  0.4091E-02  0.7719E-01  0.1038E-01
     -1.460  0.2585E-02  0.5723E-01  0.1147E-01
     -1.359  0.4513E-02  0.7527E-01  0.1980E-01
     -1.258  0.5651E-02  0.1000E+00  0.1637E-01
     -1.156  0.2047E-02  0.5781E-01  0.1074E-01
     -1.055  0.1366E-02  0.5580E-01  0.1187E-01
     -0.954  0.1440E-02  0.2914E-01  0.7354E-02
     -0.853  0.2228E-02  0.3593E-01  0.4585E-02
     -0.752  0.1985E-03  0.6225E-02  0.1254E-02
     -0.650  0.1955E-03  0.2229E-02  0.6910E-03
     -0.549  0.1457E-03  0.3910E-02  0.7524E-03
     -0.448  0.3139E-04  0.9219E-03  0.8862E-03
     -0.347  0.1305E-03  0.2378E-02  0.6377E-03
     -0.246  0.8480E-04  0.1107E-02  0.3618E-03
     -0.144  0.9361E-06  0.6277E-03  0.9785E-04
     -0.043  0.6587E-10  0.4316E-09  0.1294E-08
      0.058  0.4234E-04  0.1095E-02  0.7962E-03
      0.159  0.4526E-04  0.3283E-03  0.1789E-03
      0.260  0.0000E+00  0.0000E+00  0.0000E+00
      0.362  0.0000E+00  0.0000E+00  0.0000E+00
      0.463  0.3500E-05  0.1909E-03  0.1949E-03
      0.564  0.0000E+00  0.0000E+00  0.0000E+00
      0.665  0.0000E+00  0.0000E+00  0.0000E+00
      0.766  0.0000E+00  0.0000E+00  0.0000E+00
      0.867  0.0000E+00  0.0000E+00  0.0000E+00
      0.969  0.0000E+00  0.0000E+00  0.0000E+00
      1.070  0.0000E+00  0.0000E+00  0.0000E+00
      1.171  0.0000E+00  0.0000E+00  0.0000E+00
      1.272  0.0000E+00  0.0000E+00  0.0000E+00
      1.373  0.0000E+00  0.0000E+00  0.0000E+00
      1.475  0.0000E+00  0.0000E+00  0.0000E+00
      1.576  0.0000E+00  0.0000E+00  0.0000E+00
      1.677  0.0000E+00  0.0000E+00  0.0000E+00
      1.778  0.0000E+00  0.0000E+00  0.0000E+00
      1.879  0.0000E+00  0.0000E+00  0.0000E+00
      1.981  0.0000E+00  0.0000E+00  0.0000E+00
      2.082  0.0000E+00  0.0000E+00  0.0000E+00
      2.183  0.0000E+00  0.0000E+00  0.0000E+00
      2.284  0.0000E+00  0.0000E+00  0.0000E+00
      2.385  0.0000E+00  0.0000E+00  0.0000E+00
      2.487  0.0000E+00  0.0000E+00  0.0000E+00
      2.588  0.2213E-05  0.1279E-03  0.2604E-03
      2.689  0.7511E-05  0.8340E-04  0.5243E-03
      2.790  0.5445E-04  0.1297E-02  0.9973E-03
      2.891  0.2394E-04  0.4438E-03  0.1436E-02
      2.993  0.6315E-03  0.2627E-02  0.4828E-02
      3.094  0.3192E-03  0.7758E-03  0.1791E-02
      3.195  0.9293E-03  0.2397E-02  0.3798E-02
      3.296  0.3855E-03  0.1830E-02  0.1886E-02
      3.397  0.8852E-03  0.3027E-02  0.3198E-02
      3.499  0.1783E-03  0.3653E-03  0.8559E-03
      3.600  0.1007E-03  0.1153E-03  0.1713E-03
      3.701  0.0000E+00  0.0000E+00  0.0000E+00
      3.802  0.0000E+00  0.0000E+00  0.0000E+00
      3.903  0.0000E+00  0.0000E+00  0.0000E+00
      4.005  0.0000E+00  0.0000E+00  0.0000E+00
      4.106  0.4568E-04  0.4696E-03  0.1541E-02
      4.207  0.7496E-05  0.2026E-04  0.7993E-04
      4.308  0.4745E-03  0.1601E-02  0.6862E-02
      4.409  0.7290E-03  0.3750E-02  0.1866E-01
      4.511  0.1219E-02  0.6199E-02  0.9711E-02
      4.612  0.2822E-02  0.4709E-02  0.1109E-01
      4.713  0.1755E-02  0.4982E-02  0.8094E-02
      4.814  0.9605E-02  0.5856E-02  0.9730E-02
      4.915  0.5683E-02  0.4479E-02  0.4364E-02
      5.017  0.5779E-03  0.8354E-03  0.3870E-03
      5.118  0.0000E+00  0.0000E+00  0.0000E+00
      5.219  0.4124E-05  0.1379E-04  0.1368E-04
      5.320  0.7318E-02  0.3103E-02  0.7256E-02
      5.421  0.1416E-01  0.1893E-02  0.4169E-02
      5.523  0.9557E-02  0.5129E-02  0.9051E-02
      5.624  0.1045E-01  0.3289E-02  0.1354E-01
      5.725  0.3048E-02  0.4442E-02  0.7313E-02
      5.826  0.8569E-02  0.4708E-02  0.2622E-01
      5.927  0.5932E-02  0.7584E-02  0.5850E-01
      6.029  0.4289E-02  0.8955E-02  0.6797E-01
      6.130  0.1243E-01  0.7800E-02  0.1299E+00
      6.231  0.3321E-01  0.8649E-02  0.1245E+00
      6.332  0.1693E-01  0.7432E-02  0.2401E+00
      6.433  0.3682E-01  0.1530E-01  0.4542E+00
      6.535  0.2023E-01  0.1233E-01  0.2351E+00
      6.636  0.2465E-01  0.1388E-01  0.2579E+00
      6.737  0.8836E-02  0.1265E-02  0.4090E-01
      6.838  0.0000E+00  0.0000E+00  0.0000E+00
      6.939  0.0000E+00  0.0000E+00  0.0000E+00
      7.041  0.0000E+00  0.0000E+00  0.0000E+00
      7.142  0.0000E+00  0.0000E+00  0.0000E+00
      7.243  0.0000E+00  0.0000E+00  0.0000E+00
      7.344  0.0000E+00  0.0000E+00  0.0000E+00
      7.445  0.0000E+00  0.0000E+00  0.0000E+00
      7.547  0.0000E+00  0.0000E+00  0.0000E+00
      7.648  0.0000E+00  0.0000E+00  0.0000E+00
      7.749  0.0000E+00  0.0000E+00  0.0000E+00
      7.850  0.0000E+00  0.0000E+00  0.0000E+00
      7.951  0.0000E+00  0.0000E+00  0.0000E+00
      8.052  0.0000E+00  0.0000E+00  0.0000E+00
      8.05249225    -22.30663428  301      0.48800989      1.00000000
    -22.307  0.0000E+00  0.0000E+00  0.0000E+00
    -22.205  0.0000E+00  0.0000E+00  0.0000E+00
    -22.104  0.0000E+00  0.0000E+00  0.0000E+00
    -22.003  0.0000E+00  0.0000E+00  0.0000E+00
    -21.902  0.0000E+00  0.0000E+00  0.0000E+00
    -21.801  0.0000E+00  0.0000E+00  0.0000E+00
    -21.699  0.0000E+00  0.0000E+00  0.0000E+00
    -21.598  0.0000E+00  0.0000E+00  0.0000E+00
    -21.497  0.0000E+00  0.0000E+00  0.0000E+00
    -21.396  0.0000E+00  0.0000E+00  0.0000E+00
    -21.295  0.0000E+00  0.0000E+00  0.0000E+00
    -21.193  0.0000E+00  0.0000E+00  0.0000E+00
    -21.092  0.0000E+00  0.0000E+00  0.0000E+00
    -20.991  0.0000E+00  0.0000E+00  0.0000E+00
    -20.890  0.2201E-03  0.7310E-07  0.1394E-07
    -20.789  0.3403E-02  0.6389E-07  0.1033E-07
    -20.687  0.1753E+02  0.1519E-03  0.8318E-05
    -20.586  0.0000E+00  0.0000E+00  0.0000E+00
    -20.485  0.0000E+00  0.0000E+00  0.0000E+00
    -20.384  0.0000E+00  0.0000E+00  0.0000E+00
    -20.283  0.0000E+00  0.0000E+00  0.0000E+00
    -20.181  0.0000E+00  0.0000E+00  0.0000E+00
    -20.080  0.0000E+00  0.0000E+00  0.0000E+00
    -19.979  0.0000E+00  0.0000E+00  0.0000E+00
    -19.878  0.0000E+00  0.0000E+00  0.0000E+00
    -19.777  0.0000E+00  0.0000E+00  0.0000E+00
    -19.676  0.0000E+00  0.0000E+00  0.0000E+00
    -19.574  0.0000E+00  0.0000E+00  0.0000E+00
    -19.473  0.0000E+00  0.0000E+00  0.0000E+00
    -19.372  0.0000E+00  0.0000E+00  0.0000E+00
    -19.271  0.0000E+00  0.0000E+00  0.0000E+00
    -19.170  0.0000E+00  0.0000E+00  0.0000E+00
    -19.068  0.0000E+00  0.0000E+00  0.0000E+00
    -18.967  0.0000E+00  0.0000E+00  0.0000E+00
    -18.866  0.0000E+00  0.0000E+00  0.0000E+00
    -18.765  0.0000E+00  0.0000E+00  0.0000E+00
    -18.664  0.0000E+00  0.0000E+00  0.0000E+00
    -18.562  0.0000E+00  0.0000E+00  0.0000E+00
    -18.461  0.0000E+00  0.0000E+00  0.0000E+00
    -18.360  0.0000E+00  0.0000E+00  0.0000E+00
    -18.259  0.0000E+00  0.0000E+00  0.0000E+00
    -18.158  0.0000E+00  0.0000E+00  0.0000E+00
    -18.056  0.0000E+00  0.0000E+00  0.0000E+00
    -17.955  0.0000E+00  0.0000E+00  0.0000E+00
    -17.854  0.0000E+00  0.0000E+00  0.0000E+00
    -17.753  0.0000E+00  0.0000E+00  0.0000E+00
    -17.652  0.0000E+00  0.0000E+00  0.0000E+00
    -17.550  0.0000E+00  0.0000E+00  0.0000E+00
    -17.449  0.0000E+00  0.0000E+00  0.0000E+00
    -17.348  0.0000E+00  0.0000E+00  0.0000E+00
    -17.247  0.0000E+00  0.0000E+00  0.0000E+00
    -17.146  0.0000E+00  0.0000E+00  0.0000E+00
    -17.044  0.0000E+00  0.0000E+00  0.0000E+00
    -16.943  0.0000E+00  0.0000E+00  0.0000E+00
    -16.842  0.2880E-03  0.1147E-03  0.1613E-04
    -16.741  0.7808E-16  0.2997E-16  0.3393E-17
    -16.640  0.3332E-04  0.1639E-04  0.2568E-05
    -16.538  0.8518E-05  0.4186E-05  0.5289E-06
    -16.437  0.4408E-04  0.2879E-04  0.4680E-05
    -16.336  0.7017E-04  0.6754E-04  0.1148E-04
    -16.235  0.5905E-04  0.4320E-04  0.5546E-05
    -16.134  0.9288E-05  0.5607E-05  0.7015E-06
    -16.032  0.0000E+00  0.0000E+00  0.0000E+00
    -15.931  0.0000E+00  0.0000E+00  0.0000E+00
    -15.830  0.0000E+00  0.0000E+00  0.0000E+00
    -15.729  0.0000E+00  0.0000E+00  0.0000E+00
    -15.628  0.0000E+00  0.0000E+00  0.0000E+00
    -15.526  0.0000E+00  0.0000E+00  0.0000E+00
    -15.425  0.0000E+00  0.0000E+00  0.0000E+00
    -15.324  0.0000E+00  0.0000E+00  0.0000E+00
    -15.223  0.0000E+00  0.0000E+00  0.0000E+00
    -15.122  0.0000E+00  0.0000E+00  0.0000E+00
    -15.020  0.0000E+00  0.0000E+00  0.0000E+00
    -14.919  0.0000E+00  0.0000E+00  0.0000E+00
    -14.818  0.0000E+00  0.0000E+00  0.0000E+00
    -14.717  0.0000E+00  0.0000E+00  0.0000E+00
    -14.616  0.7382E-04  0.9689E-04  0.8544E-05
    -14.514  0.0000E+00  0.0000E+00  0.0000E+00
    -14.413  0.5331E-06  0.9578E-05  0.6175E-06
    -14.312  0.2092E-02  0.2402E-02  0.1446E-03
    -14.211  0.2826E-02  0.2976E-02  0.1141E-03
    -14.110  0.1127E-02  0.5032E-02  0.2679E-03
    -14.008  0.1483E-02  0.4497E-02  0.4013E-03
    -13.907  0.1445E-02  0.4023E-02  0.4627E-03
    -13.806  0.9595E-03  0.2944E-02  0.3442E-03
    -13.705  0.7558E-03  0.1583E-02  0.2282E-03
    -13.604  0.3760E-03  0.4416E-03  0.2479E-04
    -13.502  0.0000E+00  0.0000E+00  0.0000E+00
    -13.401  0.0000E+00  0.0000E+00  0.0000E+00
    -13.300  0.0000E+00  0.0000E+00  0.0000E+00