       N       E                     dE             d eps       ncg     rms          rms(c)
DAV:   1     0.133903452338E+04    0.13390E+04   -0.11055E+05  3472   0.973E+02
DAV:   2    -0.111241016883E+04   -0.24514E+04   -0.23699E+04  4080   0.300E+02
DAV:   3    -0.147423451990E+04   -0.36182E+03   -0.35988E+03  4440   0.137E+02
DAV:   4    -0.148613906931E+04   -0.11905E+02   -0.11870E+02  3912   0.328E+01
DAV:   5    -0.148668482731E+04   -0.54576E+00   -0.54548E+00  4448   0.550E+00    0.107E+01
DAV:   6    -0.140904721964E+04    0.77638E+02   -0.23476E+01  4304   0.312E+01    0.758E+00
DAV:   7    -0.140854005749E+04    0.50716E+00   -0.86782E+00  4136   0.568E+00    0.376E+00
DAV:   8    -0.140871004394E+04   -0.16999E+00   -0.45090E-01  4064   0.207E+00    0.218E+00
DAV:   9    -0.140877329944E+04   -0.63256E-01   -0.16209E-01  3816   0.130E+00    0.453E-01
DAV:  10    -0.140877639533E+04   -0.30959E-02   -0.21676E-02  4720   0.449E-01    0.320E-01
DAV:  11    -0.140877870133E+04   -0.23060E-02   -0.31670E-03  3856   0.172E-01    0.136E-01
DAV:  12    -0.140878116848E+04   -0.24671E-02   -0.49108E-03  3592   0.188E-01    0.108E-01
DAV:  13    -0.140878069557E+04    0.47291E-03   -0.17767E-03  4504   0.123E-01    0.468E-02
DAV:  14    -0.140878067346E+04    0.22110E-04   -0.43623E-04  3896   0.401E-02    0.292E-02
DAV:  15    -0.140878066119E+04    0.12265E-04   -0.41973E-05  3672   0.156E-02    0.171E-02
DAV:  16    -0.140878073948E+04   -0.78281E-04   -0.40354E-05  3896   0.198E-02    0.781E-03
DAV:  17    -0.140878072687E+04    0.12604E-04   -0.64500E-06  3800   0.674E-03    0.506E-03
DAV:  18    -0.140878072640E+04    0.47625E-06   -0.19304E-06  2672   0.301E-03
   1 F= -.14087807E+04 E0= -.14087807E+04  d E =-.116325E-20
