  39  39   1   0
  0.4089970E+02  0.1166870E-08  0.1172985E-08  0.1166870E-08  0.5000000E-15
   1.0000000000000000E-004
  CAR 
 CsPbBr3 cubic bulk                      
      8.06967272    -22.23020879  301      0.44420254      1.00000000
    -22.230  0.0000E+00  0.0000E+00
    -22.129  0.0000E+00  0.0000E+00
    -22.028  0.0000E+00  0.0000E+00
    -21.927  0.0000E+00  0.0000E+00
    -21.826  0.0000E+00  0.0000E+00
    -21.725  0.0000E+00  0.0000E+00
    -21.624  0.0000E+00  0.0000E+00
    -21.523  0.0000E+00  0.0000E+00
    -21.422  0.0000E+00  0.0000E+00
    -21.321  0.0000E+00  0.0000E+00
    -21.220  0.0000E+00  0.0000E+00
    -21.119  0.0000E+00  0.0000E+00
    -21.018  0.0000E+00  0.0000E+00
    -20.917  0.0000E+00  0.0000E+00
    -20.816  0.4003E+02  0.4043E+01
    -20.715  0.6027E+02  0.1209E+02
    -20.614  0.1980E+02  0.1600E+02
    -20.513  0.0000E+00  0.1600E+02
    -20.412  0.0000E+00  0.1600E+02
    -20.311  0.0000E+00  0.1600E+02
    -20.210  0.0000E+00  0.1600E+02
    -20.109  0.0000E+00  0.1600E+02
    -20.008  0.0000E+00  0.1600E+02
    -19.907  0.0000E+00  0.1600E+02
    -19.806  0.0000E+00  0.1600E+02
    -19.705  0.0000E+00  0.1600E+02
    -19.604  0.0000E+00  0.1600E+02
    -19.503  0.0000E+00  0.1600E+02
    -19.402  0.0000E+00  0.1600E+02
    -19.301  0.0000E+00  0.1600E+02
    -19.200  0.0000E+00  0.1600E+02
    -19.099  0.0000E+00  0.1600E+02
    -18.998  0.0000E+00  0.1600E+02
    -18.897  0.0000E+00  0.1600E+02
    -18.796  0.0000E+00  0.1600E+02
    -18.695  0.0000E+00  0.1600E+02
    -18.594  0.0000E+00  0.1600E+02
    -18.493  0.0000E+00  0.1600E+02
    -18.392  0.0000E+00  0.1600E+02
    -18.291  0.0000E+00  0.1600E+02
    -18.190  0.0000E+00  0.1600E+02
    -18.089  0.0000E+00  0.1600E+02
    -17.988  0.0000E+00  0.1600E+02
    -17.887  0.0000E+00  0.1600E+02
    -17.786  0.0000E+00  0.1600E+02
    -17.685  0.0000E+00  0.1600E+02
    -17.584  0.0000E+00  0.1600E+02
    -17.483  0.0000E+00  0.1600E+02
    -17.382  0.0000E+00  0.1600E+02
    -17.281  0.0000E+00  0.1600E+02
    -17.180  0.0000E+00  0.1600E+02
    -17.079  0.0000E+00  0.1600E+02
    -16.978  0.0000E+00  0.1600E+02
    -16.877  0.0000E+00  0.1600E+02
    -16.776  0.7653E-04  0.1600E+02
    -16.675  0.6613E+02  0.2268E+02
    -16.574  0.4287E+02  0.3233E+02
    -16.473  0.7923E+02  0.4600E+02
    -16.372  0.1552E+03  0.6217E+02
    -16.271  0.2086E+03  0.8657E+02
    -16.170  0.0000E+00  0.9600E+02
    -16.069  0.0000E+00  0.9600E+02
    -15.968  0.0000E+00  0.9600E+02
    -15.867  0.0000E+00  0.9600E+02
    -15.766  0.0000E+00  0.9600E+02
    -15.665  0.0000E+00  0.9600E+02
    -15.564  0.0000E+00  0.9600E+02
    -15.463  0.0000E+00  0.9600E+02
    -15.362  0.0000E+00  0.9600E+02
    -15.261  0.0000E+00  0.9600E+02
    -15.160  0.0000E+00  0.9600E+02
    -15.059  0.0000E+00  0.9600E+02
    -14.958  0.0000E+00  0.9600E+02
    -14.857  0.0000E+00  0.9600E+02
    -14.756  0.0000E+00  0.9600E+02
    -14.655  0.0000E+00  0.9600E+02
    -14.554  0.4803E-05  0.9600E+02
    -14.453  0.2092E+02  0.9811E+02
    -14.352  0.2484E+01  0.1000E+03
    -14.251  0.2201E+02  0.1025E+03
    -14.150  0.2706E+02  0.1060E+03
    -14.049  0.4658E+02  0.1127E+03
    -13.948  0.1039E+03  0.1250E+03
    -13.847  0.8551E+02  0.1339E+03
    -13.746  0.5773E+02  0.1408E+03
    -13.645  0.2473E+01  0.1420E+03
    -13.544  0.0000E+00  0.1420E+03
    -13.443  0.0000E+00  0.1420E+03
    -13.342  0.0000E+00  0.1420E+03
    -13.241  0.0000E+00  0.1420E+03
    -13.140  0.0000E+00  0.1420E+03
    -13.039  0.0000E+00  0.1420E+03
    -12.938  0.0000E+00  0.1420E+03
    -12.837  0.0000E+00  0.1420E+03
    -12.736  0.0000E+00  0.1420E+03
    -12.635  0.0000E+00  0.1420E+03
    -12.534  0.0000E+00  0.1420E+03
    -12.433  0.0000E+00  0.1420E+03
    -12.332  0.0000E+00  0.1420E+03
    -12.231  0.0000E+00  0.1420E+03
    -12.130  0.0000E+00  0.1420E+03
    -12.029  0.0000E+00  0.1420E+03
    -11.928  0.0000E+00  0.1420E+03
    -11.827  0.0000E+00  0.1420E+03
    -11.726  0.0000E+00  0.1420E+03
    -11.625  0.0000E+00  0.1420E+03
    -11.524  0.0000E+00  0.1420E+03
    -11.423  0.0000E+00  0.1420E+03
    -11.322  0.0000E+00  0.1420E+03
    -11.221  0.0000E+00  0.1420E+03
    -11.120  0.0000E+00  0.1420E+03
    -11.019  0.0000E+00  0.1420E+03
    -10.918  0.0000E+00  0.1420E+03
    -10.817  0.0000E+00  0.1420E+03
    -10.716  0.0000E+00  0.1420E+03
    -10.615  0.0000E+00  0.1420E+03
    -10.514  0.0000E+00  0.1420E+03
    -10.413  0.0000E+00  0.1420E+03
    -10.312  0.0000E+00  0.1420E+03
    -10.211  0.0000E+00  0.1420E+03
    -10.110  0.0000E+00  0.1420E+03
    -10.009  0.0000E+00  0.1420E+03
     -9.908  0.0000E+00  0.1420E+03
     -9.807  0.0000E+00  0.1420E+03
     -9.706  0.0000E+00  0.1420E+03
     -9.605  0.0000E+00  0.1420E+03
     -9.504  0.0000E+00  0.1420E+03
     -9.403  0.0000E+00  0.1420E+03
     -9.302  0.0000E+00  0.1420E+03
     -9.201  0.0000E+00  0.1420E+03
     -9.100  0.0000E+00  0.1420E+03
     -8.999  0.0000E+00  0.1420E+03
     -8.898  0.0000E+00  0.1420E+03
     -8.797  0.0000E+00  0.1420E+03
     -8.696  0.0000E+00  0.1420E+03
     -8.595  0.0000E+00  0.1420E+03
     -8.494  0.0000E+00  0.1420E+03
     -8.393  0.0000E+00  0.1420E+03
     -8.292  0.0000E+00  0.1420E+03
     -8.191  0.2475E+01  0.1422E+03
     -8.090  0.2069E-04  0.1423E+03
     -7.989  0.8839E+01  0.1431E+03
     -7.888  0.7683E+01  0.1445E+03
     -7.787  0.4320E+01  0.1452E+03
     -7.686  0.1822E+02  0.1476E+03
     -7.585  0.1207E+02  0.1490E+03
     -7.484  0.1301E+02  0.1503E+03
     -7.383  0.1732E+02  0.1530E+03
     -7.282  0.2495E+02  0.1555E+03
     -7.181  0.1699E+03  0.1739E+03
     -7.080  0.2007E+03  0.2003E+03
     -6.979  0.1821E+02  0.2046E+03
     -6.878  0.2909E+01  0.2050E+03
     -6.777  0.4950E+01  0.2057E+03
     -6.676  0.0000E+00  0.2058E+03
     -6.575  0.1687E+01  0.2059E+03
     -6.474  0.0000E+00  0.2060E+03
     -6.373  0.0000E+00  0.2060E+03
     -6.272  0.0000E+00  0.2060E+03
     -6.171  0.0000E+00  0.2060E+03
     -6.070  0.0000E+00  0.2060E+03
     -5.969  0.0000E+00  0.2060E+03
     -5.868  0.0000E+00  0.2060E+03
     -5.767  0.0000E+00  0.2060E+03
     -5.666  0.0000E+00  0.2060E+03
     -5.565  0.0000E+00  0.2060E+03
     -5.464  0.0000E+00  0.2060E+03
     -5.363  0.0000E+00  0.2060E+03
     -5.262  0.0000E+00  0.2060E+03
     -5.161  0.0000E+00  0.2060E+03
     -5.060  0.0000E+00  0.2060E+03
     -4.959  0.0000E+00  0.2060E+03
     -4.858  0.0000E+00  0.2060E+03
     -4.757  0.0000E+00  0.2060E+03
     -4.656  0.0000E+00  0.2060E+03
     -4.555  0.0000E+00  0.2060E+03
     -4.454  0.0000E+00  0.2060E+03
     -4.353  0.0000E+00  0.2060E+03
     -4.252  0.0000E+00  0.2060E+03
     -4.151  0.0000E+00  0.2060E+03
     -4.050  0.0000E+00  0.2060E+03
     -3.949  0.0000E+00  0.2060E+03
     -3.848  0.0000E+00  0.2060E+03
     -3.747  0.0000E+00  0.2060E+03
     -3.646  0.0000E+00  0.2060E+03
     -3.545  0.0000E+00  0.2060E+03
     -3.444  0.2309E-04  0.2060E+03
     -3.343  0.9954E+01  0.2070E+03
     -3.242  0.2523E+02  0.2098E+03
     -3.141  0.3751E+02  0.2145E+03
     -3.040  0.1193E+02  0.2165E+03
     -2.939  0.1427E+02  0.2184E+03
     -2.838  0.4951E+01  0.2200E+03
     -2.737  0.2022E-02  0.2200E+03
     -2.636  0.2756E+02  0.2228E+03
     -2.535  0.4053E+02  0.2276E+03
     -2.434  0.1752E+02  0.2303E+03
     -2.333  0.3758E+02  0.2353E+03
     -2.232  0.2394E+02  0.2387E+03
     -2.131  0.2428E+02  0.2417E+03
     -2.030  0.2792E+02  0.2453E+03
     -1.929  0.2620E+02  0.2491E+03
     -1.828  0.3599E+02  0.2539E+03
     -1.727  0.3848E+02  0.2591E+03
     -1.626  0.4861E+02  0.2649E+03
     -1.525  0.5731E+02  0.2725E+03
     -1.424  0.8420E+02  0.2833E+03
     -1.323  0.1040E+03  0.2963E+03
     -1.222  0.7841E+02  0.3067E+03
     -1.121  0.8466E+02  0.3168E+03
     -1.020  0.5524E+02  0.3253E+03
     -0.919  0.2549E+02  0.3293E+03
     -0.818  0.3595E+02  0.3339E+03
     -0.717  0.1596E+02  0.3364E+03
     -0.616  0.6456E+01  0.3374E+03
     -0.515  0.1208E+02  0.3387E+03
     -0.414  0.1482E+02  0.3402E+03
     -0.313  0.1395E+02  0.3417E+03
     -0.212  0.2984E+01  0.3421E+03
     -0.111  0.4930E+01  0.3427E+03
     -0.010  0.1326E-03  0.3430E+03
      0.091  0.7411E+01  0.3437E+03
      0.192  0.0000E+00  0.3438E+03
      0.293  0.0000E+00  0.3438E+03
      0.394  0.2185E+01  0.3440E+03
      0.495  0.0000E+00  0.3440E+03
      0.596  0.0000E+00  0.3440E+03
      0.697  0.0000E+00  0.3440E+03
      0.798  0.0000E+00  0.3440E+03
      0.899  0.0000E+00  0.3440E+03
      1.000  0.0000E+00  0.3440E+03
      1.101  0.0000E+00  0.3440E+03
      1.202  0.0000E+00  0.3440E+03
      1.303  0.0000E+00  0.3440E+03
      1.404  0.0000E+00  0.3440E+03
      1.505  0.0000E+00  0.3440E+03
      1.606  0.0000E+00  0.3440E+03
      1.707  0.0000E+00  0.3440E+03
      1.808  0.0000E+00  0.3440E+03
      1.909  0.0000E+00  0.3440E+03
      2.010  0.0000E+00  0.3440E+03
      2.111  0.0000E+00  0.3440E+03
      2.212  0.0000E+00  0.3440E+03
      2.313  0.0000E+00  0.3440E+03
      2.414  0.4991E-06  0.3440E+03
      2.515  0.5049E+01  0.3445E+03
      2.616  0.7665E+01  0.3458E+03
      2.717  0.1585E-06  0.3460E+03
      2.818  0.2476E+01  0.3463E+03
      2.919  0.7620E+01  0.3470E+03
      3.020  0.1238E+02  0.3488E+03
      3.121  0.1762E+02  0.3505E+03
      3.222  0.2122E+02  0.3531E+03
      3.323  0.1453E+02  0.3547E+03
      3.424  0.1444E+02  0.3567E+03
      3.525  0.9790E+01  0.3577E+03
      3.626  0.2475E+01  0.3580E+03
      3.727  0.0000E+00  0.3580E+03
      3.828  0.0000E+00  0.3580E+03
      3.929  0.4065E+01  0.3584E+03
      4.030  0.7323E+01  0.3592E+03
      4.131  0.2507E+01  0.3595E+03
      4.232  0.7426E+01  0.3605E+03
      4.333  0.2499E+02  0.3630E+03
      4.434  0.2787E+02  0.3663E+03
      4.535  0.2476E+02  0.3693E+03
      4.636  0.3390E+02  0.3732E+03
      4.737  0.2500E+02  0.3765E+03
      4.838  0.1921E+02  0.3789E+03
      4.939  0.2226E+02  0.3820E+03
      5.040  0.2475E+01  0.3822E+03
      5.141  0.0000E+00  0.3822E+03
      5.242  0.0000E+00  0.3822E+03
      5.343  0.2971E+01  0.3826E+03
      5.444  0.1384E-05  0.3828E+03
      5.545  0.4957E+01  0.3833E+03
      5.646  0.8930E+01  0.3844E+03
      5.747  0.1252E+02  0.3863E+03
      5.848  0.1526E+02  0.3883E+03
      5.949  0.2277E+02  0.3910E+03
      6.050  0.3214E+02  0.3945E+03
      6.151  0.2980E+02  0.3980E+03
      6.252  0.2757E+02  0.4010E+03
      6.353  0.2948E+02  0.4047E+03
      6.454  0.2609E+02  0.4084E+03
      6.555  0.3261E+02  0.4120E+03
      6.656  0.2596E+02  0.4154E+03
      6.757  0.2475E+01  0.4160E+03
      6.858  0.0000E+00  0.4160E+03
      6.959  0.0000E+00  0.4160E+03
      7.060  0.0000E+00  0.4160E+03
      7.161  0.0000E+00  0.4160E+03
      7.262  0.0000E+00  0.4160E+03
      7.363  0.0000E+00  0.4160E+03
      7.464  0.0000E+00  0.4160E+03
      7.565  0.0000E+00  0.4160E+03
      7.666  0.0000E+00  0.4160E+03
      7.767  0.0000E+00  0.4160E+03
      7.868  0.0000E+00  0.4160E+03
      7.969  0.0000E+00  0.4160E+03
      8.070  0.0000E+00  0.4160E+03
      8.06967272    -22.23020879  301      0.44420254      1.00000000
    -22.230  0.0000E+00  0.0000E+00  0.0000E+00
    -22.129  0.0000E+00  0.0000E+00  0.0000E+00
    -22.028  0.0000E+00  0.0000E+00  0.0000E+00
    -21.927  0.0000E+00  0.0000E+00  0.0000E+00
    -21.826  0.0000E+00  0.0000E+00  0.0000E+00
    -21.725  0.0000E+00  0.0000E+00  0.0000E+00
    -21.624  0.0000E+00  0.0000E+00  0.0000E+00
    -21.523  0.0000E+00  0.0000E+00  0.0000E+00
    -21.422  0.0000E+00  0.0000E+00  0.0000E+00
    -21.321  0.0000E+00  0.0000E+00  0.0000E+00
    -21.220  0.0000E+00  0.0000E+00  0.0000E+00
    -21.119  0.0000E+00  0.0000E+00  0.0000E+00
    -21.018  0.0000E+00  0.0000E+00  0.0000E+00
    -20.917  0.0000E+00  0.0000E+00  0.0000E+00
    -20.816  0.1693E-02  0.2971E-06  0.4137E-07
    -20.715  0.1757E+02  0.1919E-04  0.8308E-05
    -20.614  0.1006E-05  0.1887E-08  0.5657E-10
    -20.513  0.0000E+00  0.0000E+00  0.0000E+00
    -20.412  0.0000E+00  0.0000E+00  0.0000E+00
    -20.311  0.0000E+00  0.0000E+00  0.0000E+00
    -20.210  0.0000E+00  0.0000E+00  0.0000E+00
    -20.109  0.0000E+00  0.0000E+00  0.0000E+00
    -20.008  0.0000E+00  0.0000E+00  0.0000E+00
    -19.907  0.0000E+00  0.0000E+00  0.0000E+00
    -19.806  0.0000E+00  0.0000E+00  0.0000E+00
    -19.705  0.0000E+00  0.0000E+00  0.0000E+00
    -19.604  0.0000E+00  0.0000E+00  0.0000E+00
    -19.503  0.0000E+00  0.0000E+00  0.0000E+00
    -19.402  0.0000E+00  0.0000E+00  0.0000E+00
    -19.301  0.0000E+00  0.0000E+00  0.0000E+00
    -19.200  0.0000E+00  0.0000E+00  0.0000E+00
    -19.099  0.0000E+00  0.0000E+00  0.0000E+00
    -18.998  0.0000E+00  0.0000E+00  0.0000E+00
    -18.897  0.0000E+00  0.0000E+00  0.0000E+00
    -18.796  0.0000E+00  0.0000E+00  0.0000E+00
    -18.695  0.0000E+00  0.0000E+00  0.0000E+00
    -18.594  0.0000E+00  0.0000E+00  0.0000E+00
    -18.493  0.0000E+00  0.0000E+00  0.0000E+00
    -18.392  0.0000E+00  0.0000E+00  0.0000E+00
    -18.291  0.0000E+00  0.0000E+00  0.0000E+00
    -18.190  0.0000E+00  0.0000E+00  0.0000E+00
    -18.089  0.0000E+00  0.0000E+00  0.0000E+00
    -17.988  0.0000E+00  0.0000E+00  0.0000E+00
    -17.887  0.0000E+00  0.0000E+00  0.0000E+00
    -17.786  0.0000E+00  0.0000E+00  0.0000E+00
    -17.685  0.0000E+00  0.0000E+00  0.0000E+00
    -17.584  0.0000E+00  0.0000E+00  0.0000E+00
    -17.483  0.0000E+00  0.0000E+00  0.0000E+00
    -17.382  0.0000E+00  0.0000E+00  0.0000E+00
    -17.281  0.0000E+00  0.0000E+00  0.0000E+00
    -17.180  0.0000E+00  0.0000E+00  0.0000E+00
    -17.079  0.0000E+00  0.0000E+00  0.0000E+00
    -16.978  0.0000E+00  0.0000E+00  0.0000E+00
    -16.877  0.0000E+00  0.0000E+00  0.0000E+00
    -16.776  0.2901E-11  0.1085E-10  0.2801E-11
    -16.675  0.3153E-04  0.1760E-04  0.3202E-05
    -16.574  0.1671E-04  0.7488E-05  0.1017E-05
    -16.473  0.3178E-05  0.1318E-05  0.1402E-06
    -16.372  0.8556E-04  0.8892E-04  0.1917E-04
    -16.271  0.5752E-04  0.3175E-04  0.3854E-05
    -16.170  0.0000E+00  0.0000E+00  0.0000E+00
    -16.069  0.0000E+00  0.0000E+00  0.0000E+00
    -15.968  0.0000E+00  0.0000E+00  0.0000E+00
    -15.867  0.0000E+00  0.0000E+00  0.0000E+00
    -15.766  0.0000E+00  0.0000E+00  0.0000E+00
    -15.665  0.0000E+00  0.0000E+00  0.0000E+00
    -15.564  0.0000E+00  0.0000E+00  0.0000E+00
    -15.463  0.0000E+00  0.0000E+00  0.0000E+00
    -15.362  0.0000E+00  0.0000E+00  0.0000E+00
    -15.261  0.0000E+00  0.0000E+00  0.0000E+00
    -15.160  0.0000E+00  0.0000E+00  0.0000E+00
    -15.059  0.0000E+00  0.0000E+00  0.0000E+00
    -14.958  0.0000E+00  0.0000E+00  0.0000E+00
    -14.857  0.0000E+00  0.0000E+00  0.0000E+00
    -14.756  0.0000E+00  0.0000E+00  0.0000E+00
    -14.655  0.0000E+00  0.0000E+00  0.0000E+00
    -14.554  0.4958E-09  0.1033E-09  0.6352E-11
    -14.453  0.1445E-02  0.7043E-03  0.3917E-04
    -14.352  0.9088E-04  0.2080E-03  0.1470E-04
    -14.251  0.2216E-02  0.1676E-02  0.4321E-04
    -14.150  0.1309E-02  0.2852E-02  0.9631E-04
    -14.049  0.3824E-03  0.2620E-02  0.1863E-03
    -13.948  0.3026E-02  0.6339E-02  0.5991E-03
    -13.847  0.1139E-02  0.4746E-02  0.5067E-03
    -13.746  0.8090E-03  0.2008E-02  0.3317E-03
    -13.645  0.3459E-04  0.1221E-04  0.2087E-04
    -13.544  0.0000E+00  0.0000E+00  0.0000E+00
    -13.443  0.0000E+00  0.0000E+00  0.0000E+00
    -13.342  0.0000E+00  0.0000E+00  0.0000E+00
    -13.241  0.0000E+00  0.0000E+00  0.0000E+00
    -13.140  0.0000E+00  0.0000E+00  0.0000E+00
    -13.039  0.0000E+00  0.0000E+00  0.0000E+00
    -12.938  0.0000E+00  0.0000E+00  0.0000E+00
    -12.837  0.0000E+00  0.0000E+00  0.0000E+00
    -12.736  0.0000E+00  0.0000E+00  0.0000E+00
    -12.635  0.0000E+00  0.0000E+00  0.0000E+00
    -12.534  0.0000E+00  0.0000E+00  0.0000E+00
    -12.433  0.0000E+00  0.0000E+00  0.0000E+00
    -12.332  0.0000E+00  0.0000E+00  0.0000E+00
    -12.231  0.0000E+00  0.0000E+00  0.0000E+00
    -12.130  0.0000E+00  0.0000E+00  0.0000E+00
    -12.029  0.0000E+00  0.0000E+00  0.0000E+00
    -11.928  0.0000E+00  0.0000E+00  0.0000E+00
    -11.827  0.0000E+00  0.0000E+00  0.0000E+00
    -11.726  0.0000E+00  0.0000E+00  0.0000E+00
    -11.625  0.0000E+00  0.0000E+00  0.0000E+00
    -11.524  0.0000E+00  0.0000E+00  0.0000E+00
    -11.423  0.0000E+00  0.0000E+00  0.0000E+00
    -11.322  0.0000E+00  0.0000E+00  0.0000E+00
    -11.221  0.0000E+00  0.0000E+00  0.0000E+00
    -11.120  0.0000E+00  0.0000E+00  0.0000E+00
    -11.019  0.0000E+00  0.0000E+00  0.0000E+00
    -10.918  0.0000E+00  0.0000E+00  0.0000E+00
    -10.817  0.0000E+00  0.0000E+00  0.0000E+00
    -10.716  0.0000E+00  0.0000E+00  0.0000E+00
    -10.615  0.0000E+00  0.0000E+00  0.0000E+00
    -10.514  0.0000E+00  0.0000E+00  0.0000E+00
    -10.413  0.0000E+00  0.0000E+00  0.0000E+00
    -10.312  0.0000E+00  0.0000E+00  0.0000E+00
    -10.211  0.0000E+00  0.0000E+00  0.0000E+00
    -10.110  0.0000E+00  0.0000E+00  0.0000E+00
    -10.009  0.0000E+00  0.0000E+00  0.0000E+00
     -9.908  0.0000E+00  0.0000E+00  0.0000E+00
     -9.807  0.0000E+00  0.0000E+00  0.0000E+00
     -9.706  0.0000E+00  0.0000E+00  0.0000E+00
     -9.605  0.0000E+00  0.0000E+00  0.0000E+00
     -9.504  0.0000E+00  0.0000E+00  0.0000E+00
     -9.403  0.0000E+00  0.0000E+00  0.0000E+00
     -9.302  0.0000E+00  0.0000E+00  0.0000E+00
     -9.201  0.0000E+00  0.0000E+00  0.0000E+00
     -9.100  0.0000E+00  0.0000E+00  0.0000E+00
     -8.999  0.0000E+00  0.0000E+00  0.0000E+00
     -8.898  0.0000E+00  0.0000E+00  0.0000E+00
     -8.797  0.0000E+00  0.0000E+00  0.0000E+00
     -8.696  0.0000E+00  0.0000E+00  0.0000E+00
     -8.595  0.0000E+00  0.0000E+00  0.0000E+00
     -8.494  0.0000E+00  0.0000E+00  0.0000E+00
     -8.393  0.0000E+00  0.0000E+00  0.0000E+00
     -8.292  0.0000E+00  0.0000E+00  0.0000E+00
     -8.191  0.2628E-06  0.1580E-03  0.8976E-05
     -8.090  0.4002E-11  0.2443E-08  0.7959E-10
     -7.989  0.1674E-05  0.3043E-02  0.2665E-04
     -7.888  0.2545E-05  0.5666E-02  0.1090E-04
     -7.787  0.3415E-07  0.4415E-02  0.1039E-04
     -7.686  0.6224E-05  0.3051E-01  0.5585E-04
     -7.585  0.1691E-05  0.3352E-01  0.2542E-04
     -7.484  0.1471E-04  0.3799E-01  0.3383E-04
     -7.383  0.1146E-04  0.9437E-01  0.5733E-04
     -7.282  0.1155E-04  0.1003E+00  0.3707E-04
     -7.181  0.4838E-04  0.3551E+01  0.7064E-04
     -7.080  0.4637E-04  0.3333E+02  0.6648E-04
     -6.979  0.2667E-04  0.2471E+00  0.1398E-04
     -6.878  0.2335E-05  0.5477E-02  0.7977E-05
     -6.777  0.1685E-04  0.2513E-01  0.8395E-05
     -6.676  0.0000E+00  0.0000E+00  0.0000E+00
     -6.575  0.5270E-05  0.2919E-02  0.1531E-05
     -6.474  0.0000E+00  0.0000E+00  0.0000E+00
     -6.373  0.0000E+00  0.0000E+00  0.0000E+00
     -6.272  0.0000E+00  0.0000E+00  0.0000E+00
     -6.171  0.0000E+00  0.0000E+00  0.0000E+00
     -6.070  0.0000E+00  0.0000E+00  0.0000E+00
     -5.969  0.0000E+00  0.0000E+00  0.0000E+00
     -5.868  0.0000E+00  0.0000E+00  0.0000E+00
     -5.767  0.0000E+00  0.0000E+00  0.0000E+00
     -5.666  0.0000E+00  0.0000E+00  0.0000E+00
     -5.565  0.0000E+00  0.0000E+00  0.0000E+00
     -5.464  0.0000E+00  0.0000E+00  0.0000E+00
     -5.363  0.0000E+00  0.0000E+00  0.0000E+00
     -5.262  0.0000E+00  0.0000E+00  0.0000E+00
     -5.161  0.0000E+00  0.0000E+00  0.0000E+00
     -5.060  0.0000E+00  0.0000E+00  0.0000E+00
     -4.959  0.0000E+00  0.0000E+00  0.0000E+00
     -4.858  0.0000E+00  0.0000E+00  0.0000E+00
     -4.757  0.0000E+00  0.0000E+00  0.0000E+00
     -4.656  0.0000E+00  0.0000E+00  0.0000E+00
     -4.555  0.0000E+00  0.0000E+00  0.0000E+00
     -4.454  0.0000E+00  0.0000E+00  0.0000E+00
     -4.353  0.0000E+00  0.0000E+00  0.0000E+00
     -4.252  0.0000E+00  0.0000E+00  0.0000E+00
     -4.151  0.0000E+00  0.0000E+00  0.0000E+00
     -4.050  0.0000E+00  0.0000E+00  0.0000E+00
     -3.949  0.0000E+00  0.0000E+00  0.0000E+00
     -3.848  0.0000E+00  0.0000E+00  0.0000E+00
     -3.747  0.0000E+00  0.0000E+00  0.0000E+00
     -3.646  0.0000E+00  0.0000E+00  0.0000E+00
     -3.545  0.0000E+00  0.0000E+00  0.0000E+00
     -3.444  0.9624E-12  0.1316E-07  0.8209E-09
     -3.343  0.7126E-06  0.4201E-02  0.3212E-03
     -3.242  0.2207E-03  0.2120E-01  0.1005E-02
     -3.141  0.2507E-03  0.1788E-01  0.2165E-02
     -3.040  0.4673E-04  0.3970E-02  0.5643E-03
     -2.939  0.2268E-04  0.6734E-02  0.5692E-03
     -2.838  0.7476E-05  0.2230E-02  0.1311E-03
     -2.737  0.2136E-07  0.4007E-05  0.9671E-07
     -2.636  0.1005E-02  0.2700E-01  0.1416E-02
     -2.535  0.3263E-02  0.2190E-01  0.1659E-02
     -2.434  0.9772E-03  0.1442E-01  0.9280E-03
     -2.333  0.5726E-02  0.2044E-01  0.2338E-02
     -2.232  0.2246E-02  0.8897E-02  0.1899E-02
     -2.131  0.8105E-02  0.1497E-01  0.2864E-02
     -2.030  0.9591E-02  0.3763E-01  0.3748E-02
     -1.929  0.6186E-02  0.4069E-01  0.2784E-02
     -1.828  0.3831E-02  0.8486E-01  0.4806E-02
     -1.727  0.2111E-02  0.8476E-01  0.4848E-02
     -1.626  0.3468E-02  0.1033E+00  0.8571E-02
     -1.525  0.2075E-02  0.5345E-01  0.9302E-02
     -1.424  0.4462E-02  0.4186E-01  0.1603E-01
     -1.323  0.3679E-02  0.6516E-01  0.1819E-01
     -1.222  0.4957E-02  0.6695E-01  0.1249E-01
     -1.121  0.7963E-03  0.6548E-01  0.1218E-01
     -1.020  0.1142E-02  0.5757E-01  0.8293E-02
     -0.919  0.4329E-03  0.1493E-01  0.3671E-02
     -0.818  0.1530E-02  0.4376E-01  0.6629E-02
     -0.717  0.5207E-03  0.4590E-02  0.1085E-02
     -0.616  0.1933E-03  0.3168E-02  0.3139E-03
     -0.515  0.1907E-03  0.2133E-02  0.6459E-03
     -0.414  0.5580E-04  0.2359E-02  0.9001E-03
     -0.313  0.3969E-04  0.1867E-02  0.6063E-03
     -0.212  0.6631E-06  0.2657E-03  0.1252E-03
     -0.111  0.6044E-05  0.6292E-03  0.4233E-03
     -0.010  0.2628E-10  0.9137E-08  0.8113E-08
      0.091  0.6800E-05  0.4467E-03  0.3500E-03
      0.192  0.0000E+00  0.0000E+00  0.0000E+00
      0.293  0.0000E+00  0.0000E+00  0.0000E+00
      0.394  0.1680E-05  0.9790E-05  0.1737E-03
      0.495  0.0000E+00  0.0000E+00  0.0000E+00
      0.596  0.0000E+00  0.0000E+00  0.0000E+00
      0.697  0.0000E+00  0.0000E+00  0.0000E+00
      0.798  0.0000E+00  0.0000E+00  0.0000E+00
      0.899  0.0000E+00  0.0000E+00  0.0000E+00
      1.000  0.0000E+00  0.0000E+00  0.0000E+00
      1.101  0.0000E+00  0.0000E+00  0.0000E+00
      1.202  0.0000E+00  0.0000E+00  0.0000E+00
      1.303  0.0000E+00  0.0000E+00  0.0000E+00
      1.404  0.0000E+00  0.0000E+00  0.0000E+00
      1.505  0.0000E+00  0.0000E+00  0.0000E+00
      1.606  0.0000E+00  0.0000E+00  0.0000E+00
      1.707  0.0000E+00  0.0000E+00  0.0000E+00
      1.808  0.0000E+00  0.0000E+00  0.0000E+00
      1.909  0.0000E+00  0.0000E+00  0.0000E+00
      2.010  0.0000E+00  0.0000E+00  0.0000E+00
      2.111  0.0000E+00  0.0000E+00  0.0000E+00
      2.212  0.0000E+00  0.0000E+00  0.0000E+00
      2.313  0.0000E+00  0.0000E+00  0.0000E+00
      2.414  0.9392E-11  0.4279E-10  0.3839E-10
      2.515  0.1298E-03  0.4230E-03  0.2888E-03
      2.616  0.2321E-03  0.6101E-03  0.3796E-03
      2.717  0.2949E-11  0.9186E-11  0.8435E-10
      2.818  0.4605E-04  0.1435E-03  0.1318E-02
      2.919  0.1912E-03  0.2367E-03  0.2521E-02
      3.020  0.3750E-03  0.1779E-02  0.3034E-02
      3.121  0.6145E-03  0.3034E-02  0.3729E-02
      3.222  0.5721E-03  0.3347E-02  0.4762E-02
      3.323  0.3900E-03  0.1871E-02  0.2769E-02
      3.424  0.4498E-03  0.2176E-02  0.2667E-02
      3.525  0.4775E-03  0.1057E-02  0.1423E-02
      3.626  0.2671E-04  0.1825E-03  0.1138E-03
      3.727  0.0000E+00  0.0000E+00  0.0000E+00
      3.828  0.0000E+00  0.0000E+00  0.0000E+00
      3.929  0.8500E-05  0.4112E-03  0.5838E-03
      4.030  0.1420E-03  0.1289E-02  0.3153E-02
      4.131  0.2343E-04  0.2554E-03  0.2099E-03
      4.232  0.9977E-04  0.5628E-03  0.4221E-02
      4.333  0.3478E-03  0.2559E-02  0.1255E-01
      4.434  0.1744E-02  0.4060E-02  0.1388E-01
      4.535  0.1068E-02  0.5339E-02  0.1150E-01
      4.636  0.3251E-02  0.7938E-02  0.1054E-01
      4.737  0.4880E-02  0.5639E-02  0.8439E-02
      4.838  0.7130E-02  0.3127E-02  0.5545E-02
      4.939  0.5364E-02  0.5838E-02  0.9230E-02
      5.040  0.9447E-04  0.5010E-03  0.1785E-02
      5.141  0.0000E+00  0.0000E+00  0.0000E+00
      5.242  0.0000E+00  0.0000E+00  0.0000E+00
      5.343  0.8843E-02  0.3560E-02  0.2672E-02
      5.444  0.8784E-08  0.1280E-08  0.1714E-08
      5.545  0.1584E-01  0.2480E-02  0.7362E-02
      5.646  0.1158E-01  0.5700E-02  0.8976E-02
      5.747  0.1043E-01  0.5543E-02  0.1772E-01
      5.848  0.8735E-02  0.3029E-02  0.2795E-01
      5.949  0.9540E-02  0.5825E-02  0.3726E-01
      6.050  0.3218E-01  0.1986E-01  0.1234E+00
      6.151  0.4068E-01  0.7534E-02  0.2150E+00
      6.252  0.3005E-01  0.8992E-02  0.1699E+00
      6.353  0.3514E-01  0.1397E-01  0.2510E+00
      6.454  0.1736E-01  0.1628E-01  0.3566E+00
      6.555  0.2307E-01  0.2571E-01  0.3125E+00
      6.656  0.1638E-01  0.1583E-01  0.2590E+00
      6.757  0.3451E-02  0.2428E-02  0.1666E-01
      6.858  0.0000E+00  0.0000E+00  0.0000E+00
      6.959  0.0000E+00  0.0000E+00  0.0000E+00
      7.060  0.0000E+00  0.0000E+00  0.0000E+00
      7.161  0.0000E+00  0.0000E+00  0.0000E+00
      7.262  0.0000E+00  0.0000E+00  0.0000E+00
      7.363  0.0000E+00  0.0000E+00  0.0000E+00
      7.464  0.0000E+00  0.0000E+00  0.0000E+00
      7.565  0.0000E+00  0.0000E+00  0.0000E+00
      7.666  0.0000E+00  0.0000E+00  0.0000E+00
      7.767  0.0000E+00  0.0000E+00  0.0000E+00
      7.868  0.0000E+00  0.0000E+00  0.0000E+00
      7.969  0.0000E+00  0.0000E+00  0.0000E+00
      8.070  0.0000E+00  0.0000E+00  0.0000E+00
      8.06967272    -22.23020879  301      0.44420254      1.00000000
    -22.230  0.0000E+00  0.0000E+00  0.0000E+00
    -22.129  0.0000E+00  0.0000E+00  0.0000E+00
    -22.028  0.0000E+00  0.0000E+00  0.0000E+00
    -21.927  0.0000E+00  0.0000E+00  0.0000E+00
    -21.826  0.0000E+00  0.0000E+00  0.0000E+00
    -21.725  0.0000E+00  0.0000E+00  0.0000E+00
    -21.624  0.0000E+00  0.0000E+00  0.0000E+00
    -21.523  0.0000E+00  0.0000E+00  0.0000E+00
    -21.422  0.0000E+00  0.0000E+00  0.0000E+00
    -21.321  0.0000E+00  0.0000E+00  0.0000E+00
    -21.220  0.0000E+00  0.0000E+00  0.0000E+00
    -21.119  0.0000E+00  0.0000E+00  0.0000E+00
    -21.018  0.0000E+00  0.0000E+00  0.0000E+00
    -20.917  0.0000E+00  0.0000E+00  0.0000E+00
    -20.816  0.3805E+00  0.2010E-05  0.3878E-06
    -20.715  0.9154E-04  0.1319E-07  0.9129E-09
    -20.614  0.4347E-03  0.7317E-07  0.9794E-08
    -20.513  0.0000E+00  0.0000E+00  0.0000E+00
    -20.412  0.0000E+00  0.0000E+00  0.0000E+00
    -20.311  0.0000E+00  0.0000E+00  0.0000E+00
    -20.210  0.0000E+00  0.0000E+00  0.0000E+00
    -20.109  0.0000E+00  0.0000E+00  0.0000E+00
    -20.008  0.0000E+00  0.0000E+00  0.0000E+00
    -19.907  0.0000E+00  0.0000E+00  0.0000E+00
    -19.806  0.0000E+00  0.0000E+00  0.0000E+00
    -19.705  0.0000E+00  0.0000E+00  0.0000E+00
    -19.604  0.0000E+00  0.0000E+00  0.0000E+00
    -19.503  0.0000E+00  0.0000E+00  0.0000E+00
    -19.402  0.0000E+00  0.0000E+00  0.0000E+00
    -19.301  0.0000E+00  0.0000E+00  0.0000E+00
    -19.200  0.0000E+00  0.0000E+00  0.0000E+00
    -19.099  0.0000E+00  0.0000E+00  0.0000E+00
    -18.998  0.0000E+00  0.0000E+00  0.0000E+00
    -18.897  0.0000E+00  0.0000E+00  0.0000E+00
    -18.796  0.0000E+00  0.0000E+00  0.0000E+00
    -18.695  0.0000E+00  0.0000E+00  0.0000E+00
    -18.594  0.0000E+00  0.0000E+00  0.0000E+00
    -18.493  0.0000E+00  0.0000E+00  0.0000E+00
    -18.392  0.0000E+00  0.0000E+00  0.0000E+00
    -18.291  0.0000E+00  0.0000E+00  0.0000E+00
    -18.190  0.0000E+00  0.0000E+00  0.0000E+00
    -18.089  0.0000E+00  0.0000E+00  0.0000E+00
    -17.988  0.0000E+00  0.0000E+00  0.0000E+00
    -17.887  0.0000E+00  0.0000E+00  0.0000E+00
    -17.786  0.0000E+00  0.0000E+00  0.0000E+00
    -17.685  0.0000E+00  0.0000E+00  0.0000E+00
    -17.584  0.0000E+00  0.0000E+00  0.0000E+00
    -17.483  0.0000E+00  0.0000E+00  0.0000E+00
    -17.382  0.0000E+00  0.0000E+00  0.0000E+00
    -17.281  0.0000E+00  0.0000E+00  0.0000E+00
    -17.180  0.0000E+00  0.0000E+00  0.0000E+00
    -17.079  0.0000E+00  0.0000E+00  0.0000E+00
    -16.978  0.0000E+00  0.0000E+00  0.0000E+00
    -16.877  0.0000E+00  0.0000E+00  0.0000E+00
    -16.776  0.3586E-10  0.1521E-10  0.2556E-11
    -16.675  0.2859E-04  0.1110E-04  0.1579E-05
    -16.574  0.2093E-04  0.1828E-04  0.3885E-05
    -16.473  0.8522E-05  0.4823E-05  0.6913E-06
    -16.372  0.1064E-03  0.8249E-04  0.1415E-04
    -16.271  0.2968E-04  0.1742E-04  0.2055E-05
    -16.170  0.0000E+00  0.0000E+00  0.0000E+00
    -16.069  0.0000E+00  0.0000E+00  0.0000E+00
    -15.968  0.0000E+00  0.0000E+00  0.0000E+00
    -15.867  0.0000E+00  0.0000E+00  0.0000E+00
    -15.766  0.0000E+00  0.0000E+00  0.0000E+00
    -15.665  0.0000E+00  0.0000E+00  0.0000E+00
    -15.564  0.0000E+00  0.0000E+00  0.0000E+00
    -15.463  0.0000E+00  0.0000E+00  0.0000E+00
    -15.362  0.0000E+00  0.0000E+00  0.0000E+00
    -15.261  0.0000E+00  0.0000E+00  0.0000E+00
    -15.160  0.0000E+00  0.0000E+00  0.0000E+00
    -15.059  0.0000E+00  0.0000E+00  0.0000E+00
    -14.958  0.0000E+00  0.0000E+00  0.0000E+00
    -14.857  0.0000E+00  0.0000E+00  0.0000E+00
    -14.756  0.0000E+00  0.0000E+00  0.0000E+00
    -14.655  0.0000E+00  0.0000E+00  0.0000E+00
    -14.554  0.3331E-09  0.9752E-11  0.1761E-11
    -14.453  0.6153E-03  0.3768E-03  0.9010E-05
    -14.352  0.3177E-04  0.8429E-04  0.1734E-05
    -14.251  0.2515E-02  0.2236E-02  0.7645E-04
    -14.150  0.9189E-03  0.2162E-02  0.9149E-04
    -14.049  0.4339E-03  0.3048E-02  0.2408E-03
    -13.948  0.2527E-02  0.5548E-02  0.4998E-03
    -13.847  0.1555E-02  0.4355E-02  0.4883E-03
    -13.746  0.8455E-03  0.1948E-02  0.2523E-03
    -13.645  0.1070E-04  0.3887E-04  0.7833E-05
    -13.544  0.0000E+00  0.0000E+00  0.0000E+00
    -13.443  0.0000E+00  0.0000E+00  0.0000E+00
    -13.342  0.0000E+00  0.0000E+00  0.0000E+00
    -13.241  0.0000E+00  0.0000E+00  0.0000E+00