       N       E                     dE             d eps       ncg     rms          rms(c)
DAV:   1     0.133270670077E+04    0.13327E+04   -0.11054E+05  3472   0.973E+02
DAV:   2    -0.111682305255E+04   -0.24495E+04   -0.23704E+04  4128   0.300E+02
DAV:   3    -0.147520663224E+04   -0.35838E+03   -0.35651E+03  4432   0.136E+02
DAV:   4    -0.148691669542E+04   -0.11710E+02   -0.11676E+02  3928   0.326E+01
DAV:   5    -0.148744271418E+04   -0.52602E+00   -0.52578E+00  4432   0.543E+00    0.101E+01
DAV:   6    -0.140976423884E+04    0.77678E+02   -0.23595E+01  4312   0.313E+01    0.718E+00
DAV:   7    -0.140924145847E+04    0.52278E+00   -0.85934E+00  4072   0.562E+00    0.371E+00
DAV:   8    -0.140941737578E+04   -0.17592E+00   -0.45598E-01  3984   0.206E+00    0.216E+00
DAV:   9    -0.140948414781E+04   -0.66772E-01   -0.18192E-01  3752   0.136E+00    0.460E-01
DAV:  10    -0.140948787794E+04   -0.37301E-02   -0.24436E-02  4288   0.443E-01    0.330E-01
DAV:  11    -0.140948982027E+04   -0.19423E-02   -0.27967E-03  3784   0.153E-01    0.159E-01
DAV:  12    -0.140949276176E+04   -0.29415E-02   -0.53997E-03  3568   0.194E-01    0.104E-01
DAV:  13    -0.140949243180E+04    0.32996E-03   -0.14746E-03  4464   0.109E-01    0.503E-02
DAV:  14    -0.140949237935E+04    0.52452E-04   -0.42171E-04  3880   0.393E-02    0.262E-02
DAV:  15    -0.140949236313E+04    0.16220E-04   -0.29657E-05  3976   0.154E-02    0.147E-02
DAV:  16    -0.140949240571E+04   -0.42582E-04   -0.32742E-05  3744   0.160E-02    0.642E-03
DAV:  17    -0.140949241694E+04   -0.11232E-04   -0.90537E-06  3928   0.802E-03    0.414E-03
DAV:  18    -0.140949240951E+04    0.74345E-05   -0.21913E-06  2816   0.319E-03    0.164E-03
DAV:  19    -0.140949240453E+04    0.49767E-05   -0.41247E-07  2248   0.178E-03    0.110E-03
DAV:  20    -0.140949240272E+04    0.18077E-05   -0.26890E-07  2128   0.118E-03    0.859E-04
DAV:  21    -0.140949240208E+04    0.64117E-06   -0.71494E-08  2000   0.758E-04
   1 F= -.14094924E+04 E0= -.14094924E+04  d E =-.596057E-18
