 vasp.5.4.4.18Apr17-6-g9f103f2a35 (build Jun 22 2020 09:27:21) complex           
 executed on tx2_gcc-7.3_libsci-1 date 2021.10.11  20:44:42
 running on   64 total cores
 distrk:  each k-point on   64 cores,    1 groups
 distr:  one band on NCORES_PER_BAND=   8 cores,    8 groups


--------------------------------------------------------------------------------------------------------


 INCAR:
 POTCAR:    PAW_PBE Cs_sv 08Apr2002               
 POTCAR:    PAW_PBE Pb_d 06Sep2000                
 POTCAR:    PAW_PBE Br 06Sep2000                  
 POTCAR:    PAW_PBE Cs_sv 08Apr2002               
   SHA256 =  c1463496f0f6037ed62c6012a8013a89ee9ad6ffb38599dcd6c079e7ed31779b Cs
   COPYR  = (c) Copyright 08Apr2002 Georg Kresse                                
   COPYR  = This file is part of the software VASP. Any use, copying, and all ot
   COPYR  = If you do not have a valid VASP license, you may not use, copy or di
   VRHFIN =Cs: 5s5p6s                                                           
   LEXCH  = PE                                                                  
   EATOM  =   555.6835 eV,   40.8416 Ry                                         
                                                                                
   TITEL  = PAW_PBE Cs_sv 08Apr2002                                             
   LULTRA =        F    use ultrasoft PP ?                                      
   IUNSCR =        1    unscreen: 0-lin 1-nonlin 2-no                           
   RPACOR =    2.200    partial core radius                                     
   POMASS =  132.900; ZVAL   =    9.000    mass and valenz                      
   RCORE  =    2.500    outmost cutoff radius                                   
   RWIGS  =    2.500; RWIGS  =    1.323    wigner-seitz radius (au A)           
   ENMAX  =  220.318; ENMIN  =  165.238 eV                                      
   RCLOC  =    2.207    cutoff for local pot                                    
   LCOR   =        T    correct aug charges                                     
   LPAW   =        T    paw PP                                                  
   EAUG   =  407.933                                                            
   DEXC   =    0.000                                                            
   RMAX   =    2.554    core radius for proj-oper                               
   RAUG   =    1.300    factor for augmentation sphere                          
   RDEP   =    2.590    radius for radial grids                                 
   RDEPT  =    2.117    core radius for aug-charge                              
                                                                                
   Atomic configuration                                                         
   13 entries                                                                   
     n  l   j            E        occ.                                          
     1  0  0.50    -35790.1377   2.0000                                         
     2  0  0.50     -5613.6201   2.0000                                         
     2  1  1.50     -5035.0101   6.0000                                         
     3  0  0.50     -1167.0767   2.0000                                         
     3  1  1.50      -980.9754   6.0000                                         
     3  2  2.50      -708.0703  10.0000                                         
     4  0  0.50      -220.2386   2.0000                                         
     4  1  1.50      -160.7596   6.0000                                         
     4  2  2.50       -74.2354  10.0000                                         
     5  0  0.50       -26.7287   2.0000                                         
     6  0  0.50        -2.0862   1.0000                                         
     5  1  1.50       -13.5159   6.0000                                         
     5  2  2.50        -0.4136   0.0000                                         
   Description                                                                  
     l       E           TYP  RCUT    TYP  RCUT                                 
     0    -26.7287425     23  1.900                                             
     0     -2.0862306     23  1.900                                             
     1    -13.5158719     23  2.500                                             
     1     -2.7211652     23  2.500                                             
     2     -0.4136171     23  2.500                                             
  local pseudopotential read in
  partial core-charges read in
  partial kinetic energy density read in
  atomic valenz-charges read in
  non local Contribution for L=           0  read in
    real space projection operators read in
  non local Contribution for L=           0  read in
    real space projection operators read in
  non local Contribution for L=           1  read in
    real space projection operators read in
  non local Contribution for L=           1  read in
    real space projection operators read in
  non local Contribution for L=           2  read in
    real space projection operators read in
    PAW grid and wavefunctions read in

   number of l-projection  operators is LMAX  =           5
   number of lm-projection operators is LMMAX =          13

 POTCAR:    PAW_PBE Pb_d 06Sep2000                
   SHA256 =  fb885b08f0fba73a15f6a6b0e39bd200c13ec96ef97cf3ecd8e63bade5137abd Pb
   COPYR  = (c) Copyright 06Sep2000 Georg Kresse                                
   COPYR  = This file is part of the software VASP. Any use, copying, and all ot
   COPYR  = If you do not have a valid VASP license, you may not use, copy or di
   VRHFIN =Pb:                                                                  
   LEXCH  = PE                                                                  
   EATOM  =  1661.6185 eV,  122.1255 Ry                                         
                                                                                
   TITEL  = PAW_PBE Pb_d 06Sep2000                                              
   LULTRA =        F    use ultrasoft PP ?                                      
   IUNSCR =        1    unscreen: 0-lin 1-nonlin 2-no                           
   RPACOR =    2.200    partial core radius                                     
   POMASS =  207.200; ZVAL   =   14.000    mass and valenz                      
   RCORE  =    2.500    outmost cutoff radius                                   
   RWIGS  =    3.260; RWIGS  =    1.725    wigner-seitz radius (au A)           
   ENMAX  =  237.835; ENMIN  =  178.376 eV                                      
   ICORE  =        3    local potential                                         
   LCOR   =        T    correct aug charges                                     
   LPAW   =        T    paw PP                                                  
   EAUG   =  391.914                                                            
   DEXC   =    0.000                                                            
   RMAX   =    2.565    core radius for proj-oper                               
   RAUG   =    1.300    factor for augmentation sphere                          
   RDEP   =    2.643    radius for radial grids                                 
   RDEPT  =    2.092    core radius for aug-charge                              
                                                                                
   Atomic configuration                                                         
   16 entries                                                                   
     n  l   j            E        occ.                                          
     1  0  0.50    -88091.8466   2.0000                                         
     2  0  0.50    -15753.4197   2.0000                                         
     2  1  1.50    -13508.1797   6.0000                                         
     3  0  0.50     -3781.7194   2.0000                                         
     3  1  1.50     -3138.2529   6.0000                                         
     3  2  2.50     -2483.2977  10.0000                                         
     4  0  0.50      -856.2895   2.0000                                         
     4  1  1.50      -645.4942   6.0000                                         
     4  2  2.50      -401.8768  10.0000                                         
     4  3  3.50      -132.9059  14.0000                                         
     5  0  0.50      -144.0950   2.0000                                         
     5  1  1.50       -85.7879   6.0000                                         
     5  2  2.50       -21.1769  10.0000                                         
     6  0  0.50       -12.0372   2.0000                                         
     6  1  1.50        -3.4971   2.0000                                         
     5  3  2.50        -2.7212   0.0000                                         
   Description                                                                  
     l       E           TYP  RCUT    TYP  RCUT                                 
     2    -21.1768523     23  2.500                                             
     2      1.3605826     23  2.500                                             
     0    -12.0371562     23  2.500                                             
     0     13.6058260     23  2.500                                             
     1     -3.4971339     23  2.500                                             
     1     13.6058260     23  2.500                                             
     3     -1.3605826      7  2.500                                             
  local pseudopotential read in
  partial core-charges read in
  partial kinetic energy density read in
  atomic valenz-charges read in
  non local Contribution for L=           2  read in
    real space projection operators read in
  non local Contribution for L=           2  read in
    real space projection operators read in
  non local Contribution for L=           0  read in
    real space projection operators read in
  non local Contribution for L=           0  read in
    real space projection operators read in
  non local Contribution for L=           1  read in
    real space projection operators read in
  non local Contribution for L=           1  read in
    real space projection operators read in
    PAW grid and wavefunctions read in

   number of l-projection  operators is LMAX  =           6
   number of lm-projection operators is LMMAX =          18

 POTCAR:    PAW_PBE Br 06Sep2000                  
   SHA256 =  96a73d2954943bbee26f4990d676cc6c3bf44b8dd2c75cd4b3b825d8403f0103 Br
   COPYR  = (c) Copyright 06Sep2000 Georg Kresse                                
   COPYR  = This file is part of the software VASP. Any use, copying, and all ot
   COPYR  = If you do not have a valid VASP license, you may not use, copy or di
   VRHFIN =Br: s2p5                                                             
   LEXCH  = PE                                                                  
   EATOM  =   368.4488 eV,   27.0802 Ry                                         
                                                                                
   TITEL  = PAW_PBE Br 06Sep2000                                                
   LULTRA =        F    use ultrasoft PP ?                                      
   IUNSCR =        1    unscreen: 0-lin 1-nonlin 2-no                           
   RPACOR =    1.900    partial core radius                                     
   POMASS =   79.904; ZVAL   =    7.000    mass and valenz                      
   RCORE  =    2.100    outmost cutoff radius                                   
   RWIGS  =    2.200; RWIGS  =    1.164    wigner-seitz radius (au A)           
   ENMAX  =  216.285; ENMIN  =  162.214 eV                                      
   ICORE  =        3    local potential                                         
   LCOR   =        T    correct aug charges                                     
   LPAW   =        T    paw PP                                                  
   EAUG   =  503.852                                                            
   DEXC   =    0.000                                                            
   RMAX   =    2.139    core radius for proj-oper                               
   RAUG   =    1.300    factor for augmentation sphere                          
   RDEP   =    2.186    radius for radial grids                                 
   RDEPT  =    1.890    core radius for aug-charge                              
                                                                                
   Atomic configuration                                                         
   10 entries                                                                   
     n  l   j            E        occ.                                          
     1  0  0.50    -13316.2796   2.0000                                         
     2  0  0.50     -1732.8239   2.0000                                         
     2  1  1.50     -1528.2193   6.0000                                         
     3  0  0.50      -238.0460   2.0000                                         
     3  1  1.50      -173.4609   6.0000                                         
     3  2  2.50       -66.7132  10.0000                                         
     4  0  0.50       -20.1334   2.0000                                         
     4  1  0.50        -7.8591   5.0000                                         
     4  2  2.50        -8.1635   0.0000                                         
     4  3  2.50        -8.1635   0.0000                                         
   Description                                                                  
     l       E           TYP  RCUT    TYP  RCUT                                 
     0    -20.1333652     23  2.100                                             
     0    -21.4939478     23  2.100                                             
     1     -7.8591052     23  2.100                                             
     1     -3.1608434     23  2.100                                             
     2     -8.1634956     23  2.100                                             
     3     -1.3605826      7  2.100                                             
  local pseudopotential read in
  partial core-charges read in
  partial kinetic energy density read in
  atomic valenz-charges read in
  non local Contribution for L=           0  read in
    real space projection operators read in
  non local Contribution for L=           0  read in
    real space projection operators read in
  non local Contribution for L=           1  read in
    real space projection operators read in
  non local Contribution for L=           1  read in
    real space projection operators read in
  non local Contribution for L=           2  read in
    real space projection operators read in
    PAW grid and wavefunctions read in

   number of l-projection  operators is LMAX  =           5
   number of lm-projection operators is LMMAX =          13

 Optimization of the real space projectors (new method)

 maximal supplied QI-value         = 15.12
 optimisation between [QCUT,QGAM] = [  8.77, 17.69] = [ 21.53, 87.61] Ry 
 Optimized for a Real-space Cutoff    1.85 Angstroem

   l    n(q)    QCUT    max X(q) W(low)/X(q) W(high)/X(q)  e(spline) 
   0     10     8.768    25.322    0.81E-04    0.51E-04    0.48E-06
   0     10     8.768    99.187    0.78E-04    0.50E-04    0.47E-06
   1      9     8.768    11.761    0.21E-03    0.20E-03    0.37E-06
   1      9     8.768     8.275    0.24E-03    0.22E-03    0.41E-06
   2      9     8.768     3.829    0.23E-04    0.15E-03    0.18E-06
 Optimization of the real space projectors (new method)

 maximal supplied QI-value         = 15.12
 optimisation between [QCUT,QGAM] = [  8.77, 17.69] = [ 21.53, 87.61] Ry 
 Optimized for a Real-space Cutoff    1.59 Angstroem

   l    n(q)    QCUT    max X(q) W(low)/X(q) W(high)/X(q)  e(spline) 
   2      7     8.768     3.846    0.48E-04    0.11E-03    0.11E-06
   2      7     8.768     8.593    0.20E-03    0.22E-04    0.24E-06
   0      8     8.768    20.082    0.68E-04    0.88E-04    0.41E-07
   0      8     8.768     8.597    0.89E-04    0.13E-03    0.59E-07
   1      8     8.768    33.223    0.15E-03    0.53E-04    0.87E-07
   1      8     8.768    15.899    0.14E-03    0.44E-04    0.78E-07
 Optimization of the real space projectors (new method)

 maximal supplied QI-value         = 17.95
 optimisation between [QCUT,QGAM] = [  8.80, 17.59] = [ 21.67, 86.68] Ry 
 Optimized for a Real-space Cutoff    1.59 Angstroem

   l    n(q)    QCUT    max X(q) W(low)/X(q) W(high)/X(q)  e(spline) 
   0      8     8.797   175.082    0.82E-04    0.14E-03    0.89E-07
   0      8     8.797   174.004    0.79E-04    0.14E-03    0.86E-07
   1      8     8.797    54.315    0.16E-03    0.14E-04    0.30E-06
   1      8     8.797    42.441    0.16E-03    0.14E-04    0.30E-06
   2      7     8.797     3.596    0.92E-04    0.15E-03    0.85E-07
  PAW_PBE Cs_sv 08Apr2002               :
 energy of atom  1       EATOM= -555.6835
 kinetic energy error for atom=    0.0069 (will be added to EATOM!!)
  PAW_PBE Pb_d 06Sep2000                :
 energy of atom  2       EATOM=-1661.6185
 kinetic energy error for atom=    0.0498 (will be added to EATOM!!)
  PAW_PBE Br 06Sep2000                  :
 energy of atom  3       EATOM= -368.4488
 kinetic energy error for atom=    0.0072 (will be added to EATOM!!)


 POSCAR: Cs8 Pb8 Br23                            
  positions in direct lattice
  No initial velocities read in

 METAGGA = SCAN     LMAXTAU =  6    LMIXTAU =  F

 exchange correlation table for  LEXCH =        8
   RHO(1)=    0.500       N(1)  =     2000
   RHO(2)=  100.500       N(2)  =     4000

 VTST: version 3.2, (02/03/18)

 CHAIN: initializing optimizer
 
 OPT: Using VASP Conjugate-Gradient optimizer
 CHAIN: Read ICHAIN            0

 POSCAR: Cs8 Pb8 Br23                            
  positions in direct lattice
  No initial velocities read in



--------------------------------------------------------------------------------------------------------


 ion  position               nearest neighbor table
   1  0.270  0.250  0.206-
   2  0.771  0.237  0.734-
   3  0.722  0.765  0.242-
   4  0.201  0.756  0.784-
   5  0.279  0.244  0.728-
   6  0.799  0.248  0.227-
   7  0.735  0.750  0.804-
   8  0.223  0.750  0.271-
   9  0.001  0.002  1.000-  19 2.95  29 2.95  21 2.97  31 3.00  28 3.00  34 3.01
  10  0.507  0.996  0.498-  20 2.84  27 2.96  33 2.99  32 2.99  30 2.99
  11  0.498  1.000  0.999-  31 2.96  22 2.97  29 2.99  17 3.00  33 3.01  27 3.02
  12  0.005  0.005  0.500-  18 2.96  28 2.99  32 2.99  34 3.02  23 3.04  30 3.05
  13  0.498  0.495  0.001-  22 2.97  24 2.98  17 3.00  37 3.00  35 3.00  25 3.06
  14  0.994  0.514  0.501-  36 2.85  18 2.95  26 2.96  23 3.00  38 3.03
  15  0.000  0.500  0.001-  19 2.94  21 2.98  35 3.00  24 3.00  38 3.00  26 3.03
  16  0.480  0.492  0.505-  39 2.80  25 2.97  37 2.98  36 3.04  20 3.05
  17  0.474  0.747  0.965-  13 3.00  11 3.00
  18  0.974  0.760  0.448-  14 2.95  12 2.96
  19  0.978  0.251  0.973-  15 2.94   9 2.95
  20  0.479  0.235  0.469-  10 2.84  16 3.05
  21  0.010  0.751  0.032-   9 2.97  15 2.98
  22  0.529  0.247  0.044-  13 2.97  11 2.97
  23  0.012  0.262  0.535-  14 3.00  12 3.04
  24  0.247  0.470  0.948-  13 2.98  15 3.00
  25  0.450  0.529  0.254-  16 2.97  13 3.06
  26  0.948  0.535  0.747-  14 2.96  15 3.03
  27  0.547  0.024  0.749-  10 2.96  11 3.02
  28  0.051  0.037  0.252-  12 2.99   9 3.00
  29  0.753  0.989  0.038-   9 2.95  11 2.99
  30  0.260  0.959  0.546-  10 2.99  12 3.05
  31  0.249  0.030  0.950-  11 2.96   9 3.00
  32  0.753  0.032  0.447-  10 2.99  12 2.99
  33  0.455  0.957  0.248-  10 2.99  11 3.01
  34  0.953  0.966  0.747-   9 3.01  12 3.02
  35  0.752  0.521  0.050-  15 3.00  13 3.00
  36  0.233  0.550  0.551-  14 2.85  16 3.04
  37  0.536  0.447  0.753-  16 2.98  13 3.00
  38  0.048  0.466  0.254-  15 3.00  14 3.03
  39  0.666  0.643  0.515-  16 2.80


IMPORTANT INFORMATION: All symmetrisations will be switched off!
NOSYMM: (Re-)initialisation of all symmetry stuff for point group C_1.



 KPOINTS: 1x1x1                                   

Automatic generation of k-mesh.
Space group operators:
 irot       det(A)        alpha          n_x          n_y          n_z        tau_x        tau_y        tau_z
    1     1.000000     0.000001     1.000000     0.000000     0.000000     0.000000     0.000000     0.000000
 
 Subroutine IBZKPT returns following result:
 ===========================================
 
 Found      8 irreducible k-points:
 
 Following reciprocal coordinates:
            Coordinates               Weight
  0.000000  0.000000  0.000000      1.000000
  0.500000  0.000000  0.000000      1.000000
  0.000000  0.500000  0.000000      1.000000
  0.500000  0.500000  0.000000      1.000000
  0.000000  0.000000  0.500000      1.000000
  0.500000  0.000000  0.500000      1.000000
  0.000000  0.500000  0.500000      1.000000
  0.500000  0.500000  0.500000      1.000000
 
 Following cartesian coordinates:
            Coordinates               Weight
 -0.000000  0.000000  0.000000      1.000000
  0.029563  0.000000  0.031093      1.000000
 -0.000000  0.042626  0.000000      1.000000
  0.029563  0.042626  0.031093      1.000000
 -0.029563  0.000000  0.031093      1.000000
  0.000000  0.000000  0.062187      1.000000
 -0.029563  0.042626  0.031093      1.000000
  0.000000  0.042626  0.062187      1.000000
 


--------------------------------------------------------------------------------------------------------




 Dimension of arrays:
   k-points           NKPTS =      8   k-points in BZ     NKDIM =      8   number of bands    NBANDS=    208
   number of dos      NEDOS =    301   number of ions     NIONS =     39
   non local maximal  LDIM  =      6   non local SUM 2l+1 LMDIM =     18
   total plane-waves  NPLWV = 343000
   max r-space proj   IRMAX =   5734   max aug-charges    IRDMAX=  91523
   dimension x,y,z NGX =    70 NGY =   70 NGZ =   70
   dimension x,y,z NGXF=   140 NGYF=  140 NGZF=  140
   support grid    NGXF=   280 NGYF=  280 NGZF=  280
   ions per type =               8   8  23
   NGX,Y,Z   is equivalent  to a cutoff of   9.97,  9.92,  9.97 a.u.
   NGXF,Y,Z  is equivalent  to a cutoff of  19.95, 19.84, 19.95 a.u.

 SYSTEM =  CsPbBr3 cubic bulk                      
 POSCAR =  Cs8 Pb8 Br23                            

 Startparameter for this run:
   NWRITE =      2    write-flag & timer
   PREC   = accura    normal or accurate (medium, high low for compatibility)
   ISTART =      0    job   : 0-new  1-cont  2-samecut
   ICHARG =      2    charge: 1-file 2-atom 10-const
   ISPIN  =      1    spin polarized calculation?
   LNONCOLLINEAR =      F non collinear calculations
   LSORBIT =      F    spin-orbit coupling
   INIWAV =      1    electr: 0-lowe 1-rand  2-diag
   LASPH  =      T    aspherical Exc in radial PAW
   METAGGA=      F    non-selfconsistent MetaGGA calc.

 Electronic Relaxation 1
   ENCUT  =  300.0 eV  22.05 Ry    4.70 a.u.  16.48 16.57 16.48*2*pi/ulx,y,z
   ENINI  =  300.0     initial cutoff
   ENAUG  =  503.9 eV  augmentation charge cutoff
   NELM   =    200;   NELMIN=  2; NELMDL= -5     # of ELM steps 
   EDIFF  = 0.1E-05   stopping-criterion for ELM
   LREAL  =      T    real-space projection
   NLSPLINE    = F    spline interpolate recip. space projectors
   LCOMPAT=      F    compatible to vasp.4.4
   GGA_COMPAT  = T    GGA compatible to vasp.4.4-vasp.4.6
   LMAXPAW     = -100 max onsite density
   LMAXMIX     =    2 max onsite mixed and CHGCAR
   VOSKOWN=      0    Vosko Wilk Nusair interpolation
   ROPT   =   -0.00025  -0.00025  -0.00025
 Ionic relaxation
   EDIFFG = -.1E-01   stopping-criterion for IOM
   NSW    =      0    number of steps for IOM
   NBLOCK =      1;   KBLOCK =      1    inner block; outer block 
   IBRION =     -1    ionic relax: 0-MD 1-quasi-New 2-CG
   NFREE  =      1    steps in history (QN), initial steepest desc. (CG)
   ISIF   =      2    stress and relaxation
   IWAVPR =     10    prediction:  0-non 1-charg 2-wave 3-comb
   ISYM   =      0    0-nonsym 1-usesym 2-fastsym
   LCORR  =      T    Harris-Foulkes like correction to forces

   POTIM  = 0.5000    time-step for ionic-motion
   TEIN   =    0.0    initial temperature
   TEBEG  =    0.0;   TEEND  =   0.0 temperature during run
   SMASS  =  -3.00    Nose mass-parameter (am)
   estimated Nose-frequenzy (Omega)   =  0.10E-29 period in steps =****** mass=  -0.311E-26a.u.
   SCALEE = 1.0000    scale energy and forces
   NPACO  =    256;   APACO  = 16.0  distance and # of slots for P.C.
   PSTRESS=    0.0 pullay stress

  Mass of Ions in am
   POMASS = 132.90207.20 79.90
  Ionic Valenz
   ZVAL   =   9.00 14.00  7.00
  Atomic Wigner-Seitz radii
   RWIGS  =  -1.00 -1.00 -1.00
  virtual crystal weights 
   VCA    =   1.00  1.00  1.00
   NELECT =     344.0000    total number of electrons
   NUPDOWN=       0.0000    fix difference up-down

 DOS related values:
   EMIN   =  10.00;   EMAX   =-10.00  energy-range for DOS
   EFERMI =   0.00
   ISMEAR =     0;   SIGMA  =   0.01  broadening in eV -4-tet -1-fermi 0-gaus

 Electronic relaxation 2 (details)
   IALGO  =     38    algorithm
   LDIAG  =      T    sub-space diagonalisation (order eigenvalues)
   LSUBROT=      F    optimize rotation matrix (better conditioning)
   TURBO    =      0    0=normal 1=particle mesh
   IRESTART =      0    0=no restart 2=restart with 2 vectors
   NREBOOT  =      0    no. of reboots
   NMIN     =      0    reboot dimension
   EREF     =   0.00    reference energy to select bands
   IMIX   =      4    mixing-type and parameters
     AMIX     =   0.40;   BMIX     =  1.00
     AMIX_MAG =   1.60;   BMIX_MAG =  1.00
     AMIN     =   0.10
     WC   =   100.;   INIMIX=   1;  MIXPRE=   1;  MAXMIX= -45

 Intra band minimization:
   WEIMIN = 0.0000     energy-eigenvalue tresh-hold
   EBREAK =  0.12E-08  absolut break condition
   DEPER  =   0.30     relativ break condition  

   TIME   =   0.40     timestep for ELM

  volume/ion in A,a.u.               =      40.90       276.00
  Fermi-wavevector in a.u.,A,eV,Ry     =   0.981747  1.855232 13.113654  0.963826
  Thomas-Fermi vector in A             =   2.112777

 Write flags
   LWAVE        =      F    write WAVECAR
   LDOWNSAMPLE  =      F    k-point downsampling of WAVECAR
   LCHARG       =      F    write CHGCAR
   LVTOT        =      F    write LOCPOT, total local potential
   LVHAR        =      T    write LOCPOT, Hartree potential only
   LELF         =      F    write electronic localiz. function (ELF)
   LORBIT       =     10    0 simple, 1 ext, 2 COOP (PROOUT), +10 PAW based schemes


 Dipole corrections
   LMONO  =      F    monopole corrections only (constant potential shift)
   LDIPOL =      F    correct potential (dipole corrections)
   IDIPOL =      0    1-x, 2-y, 3-z, 4-all directions 
   EPSILON=  1.0000000 bulk dielectric constant

 Exchange correlation treatment:
   GGA     =    --    GGA type
   LEXCH   =     8    internal setting for exchange type
   VOSKOWN=      0    Vosko Wilk Nusair interpolation
   LHFCALC =     F    Hartree Fock is set to
   LHFONE  =     F    Hartree Fock one center treatment
   AEXX    =    0.0000 exact exchange contribution

 Linear response parameters
   LEPSILON=     F    determine dielectric tensor
   LRPA    =     F    only Hartree local field effects (RPA)
   LNABLA  =     F    use nabla operator in PAW spheres
   LVEL    =     F    velocity operator in full k-point grid
   LINTERFAST=   F  fast interpolation
   KINTER  =     0    interpolate to denser k-point grid
   CSHIFT  =0.1000    complex shift for real part using Kramers Kronig
   OMEGAMAX=  -1.0    maximum frequency
   DEG_THRESHOLD= 0.2000000E-02 threshold for treating states as degnerate
   RTIME   =   -0.100 relaxation time in fs
  (WPLASMAI=    0.000 imaginary part of plasma frequency in eV, 0.658/RTIME)
   DFIELD  = 0.0000000 0.0000000 0.0000000 field for delta impulse in time

 Orbital magnetization related:
   ORBITALMAG=     F  switch on orbital magnetization
   LCHIMAG   =     F  perturbation theory with respect to B field
   DQ        =  0.001000  dq finite difference perturbation B field
   LLRAUG    =     F  two centre corrections for induced B field



--------------------------------------------------------------------------------------------------------


 Static calculation
 charge density and potential will be updated during run
 non-spin polarized calculation
 Variant of blocked Davidson
 Davidson routine will perform the subspace rotation
 perform sub-space diagonalisation
    after iterative eigenvector-optimisation
 modified Broyden-mixing scheme, WC =      100.0
 initial mixing is a Kerker type mixing with AMIX =  0.4000 and BMIX =      1.0000
 Hartree-type preconditioning will be used
 using additional bands           36
 real space projection scheme for non local part
 use partial core corrections
 calculate Harris-corrections to forces   (improved forces if not selfconsistent)
 use gradient corrections 
 use of overlap-Matrix (Vanderbilt PP)
 Gauss-broadening in eV      SIGMA  =   0.01


--------------------------------------------------------------------------------------------------------


  energy-cutoff  :      300.00
  volume of cell :     1595.09
      direct lattice vectors                 reciprocal lattice vectors
     8.456489000  0.000000000  8.040301000     0.059126193 -0.000000000  0.062186727
     0.000000000 11.729847000  0.000000000     0.000000000  0.085252604 -0.000000000
    -8.456489000  0.000000000  8.040301000    -0.059126193  0.000000000  0.062186727

  length of vectors
    11.668703715 11.729847000 11.668703715     0.085808482  0.085252604  0.085808482



 k-points in units of 2pi/SCALE and weight: 1x1x1                                   
  -0.00000000  0.00000000  0.00000000       0.125
   0.02956310  0.00000000  0.03109336       0.125
  -0.00000000  0.04262630  0.00000000       0.125
   0.02956310  0.04262630  0.03109336       0.125
  -0.02956310  0.00000000  0.03109336       0.125
   0.00000000  0.00000000  0.06218673       0.125
  -0.02956310  0.04262630  0.03109336       0.125
   0.00000000  0.04262630  0.06218673       0.125

 k-points in reciprocal lattice and weights: 1x1x1                                   
   0.00000000  0.00000000  0.00000000       0.125
   0.50000000  0.00000000  0.00000000       0.125
   0.00000000  0.50000000  0.00000000       0.125
   0.50000000  0.50000000  0.00000000       0.125
   0.00000000  0.00000000  0.50000000       0.125
   0.50000000  0.00000000  0.50000000       0.125
   0.00000000  0.50000000  0.50000000       0.125
   0.50000000  0.50000000  0.50000000       0.125

 position of ions in fractional coordinates (direct lattice) 
   0.27018300  0.24989600  0.20581200
   0.77083800  0.23653100  0.73414200
   0.72191200  0.76469400  0.24206300
   0.20078800  0.75619500  0.78385000
   0.27858600  0.24360400  0.72753200
   0.79885000  0.24822100  0.22721000
   0.73520300  0.75008400  0.80435200
   0.22275500  0.75045200  0.27090600
   0.00128500  0.00219500  0.99969400
   0.50726300  0.99571200  0.49767000
   0.49826200  0.99964400  0.99927700
   0.00549600  0.00499900  0.49961700
   0.49794800  0.49527700  0.00090000
   0.99394500  0.51424400  0.50082000
   0.00028800  0.49964700  0.00093500
   0.48039600  0.49190000  0.50516200
   0.47365800  0.74731700  0.96543700
   0.97447300  0.75967500  0.44768300
   0.97842300  0.25147200  0.97265500
   0.47862600  0.23462400  0.46875800
   0.01040000  0.75146500  0.03223600
   0.52910500  0.24744400  0.04423400
   0.01168100  0.26153200  0.53530300
   0.24703400  0.46979900  0.94776400
   0.44996200  0.52924500  0.25388300
   0.94760400  0.53488200  0.74668300
   0.54675800  0.02424600  0.74895500
   0.05116400  0.03678400  0.25210800
   0.75326000  0.98898900  0.03811900
   0.26049600  0.95922000  0.54619400
   0.24911300  0.03042400  0.94966100
   0.75337000  0.03236300  0.44696900
   0.45455200  0.95700800  0.24770400
   0.95282800  0.96577800  0.74692100
   0.75177800  0.52125400  0.05047800
   0.23293200  0.54973600  0.55086000
   0.53607600  0.44735900  0.75338100
   0.04791700  0.46646800  0.25408100
   0.66643200  0.64320000  0.51452500

 position of ions in cartesian coordinates  (Angst):
   0.54435265  2.93124185  3.82714307
   0.31031932  2.77447244 12.10049220
   4.05783779  8.96974362  7.75064916
  -4.93065739  8.87005165  7.91678590
  -3.79650691  2.85743765  8.08949156
   4.83406737  2.91159435  8.24983124
  -0.58475776  8.79837056 12.37848561
  -0.40718840  8.80268714  3.96918303
  -8.44303473  0.02574701  8.04817245
   0.08112310 11.67954942  8.07996380
  -4.23682784 11.72567117 12.04066432
  -4.17852880  0.05863751  4.06126056
   4.20328094  5.80952343  4.01088807
   4.17010614  6.03200344 12.01836052
  -0.00547135  5.86078286  0.00983329
  -0.20943341  5.76991174  7.92418297
  -4.15872370  8.76591407 11.57075697
   4.45479384  8.91087152 11.43456231
   0.04877703  2.94972808 15.68725439
   0.08344863  2.75210362  7.61725252
  -0.18465589  8.81456948  0.34280627
   4.10030628  2.90248026  4.60981814
  -4.42800368  3.06773035  4.39791600
  -5.92571554  5.51067039  9.60653555
   1.65813991  6.20796288  5.65912566
   1.69908623  6.27408402 13.62257746
  -1.70987671  0.28440187 10.41792253
  -1.69928073  0.43147069  2.43839816
   6.04758200 11.60068965  6.36292537
  -2.41600199 11.25150384  6.48603041
  -5.92417646  0.35686887  9.63850379
   2.59107669  0.37961304  9.65108686
   1.74920784 11.22555742  5.64634962
   1.74125028 11.32842818 13.66649358
   5.93053574  6.11422967  6.45037972
  -2.68855463  6.44831917  6.30192360
  -1.83763734  5.24745262 10.36762241
  -1.74342360  5.47159827  2.42815482
   1.28459987  7.54463759  9.49524975



--------------------------------------------------------------------------------------------------------


 k-point  1 :   0.0000 0.0000 0.0000  plane waves:   18809
 k-point  2 :   0.5000 0.0000 0.0000  plane waves:   18808
 k-point  3 :   0.0000 0.5000 0.0000  plane waves:   18794
 k-point  4 :   0.5000 0.5000 0.0000  plane waves:   18804
 k-point  5 :   0.0000 0.0000 0.5000  plane waves:   18808
 k-point  6 :   0.5000 0.0000 0.5000  plane waves:   18790
 k-point  7 :   0.0000 0.5000 0.5000  plane waves:   18804
 k-point  8 :   0.5000 0.5000 0.5000  plane waves:   18800

 maximum and minimum number of plane-waves per node :      2389     2304

 maximum number of plane-waves:     18809
 maximum index in each direction: 
   IXMAX=   16   IYMAX=   16   IZMAX=   16
   IXMIN=  -16   IYMIN=  -17   IZMIN=  -16


 real space projection operators:
  total allocation   :      16725.46 KBytes
  max/ min on nodes  :       2187.09       1822.02


 parallel 3D FFT for wavefunctions:
    minimum data exchange during FFTs selected (reduces bandwidth)
 parallel 3D FFT for charge:
    minimum data exchange during FFTs selected (reduces bandwidth)


 total amount of memory used by VASP MPI-rank0    60634. kBytes
=======================================================================

   base      :      30000. kBytes
   nonlr-proj:       6469. kBytes
   fftplans  :       8423. kBytes
   grid      :       7465. kBytes
   one-center:         77. kBytes
   wavefun   :       8200. kBytes

     INWAV:  cpu time    0.0000: real time    0.0000
 Broyden mixing: mesh for mixing (old mesh)
   NGX = 33   NGY = 33   NGZ = 33
  (NGX  =140   NGY  =140   NGZ  =140)
  gives a total of  35937 points

 initial charge density was supplied:
 charge density of overlapping atoms calculated
 number of electron     345.0000000 magnetization 
 keeping initial charge density in first step


--------------------------------------------------------------------------------------------------------


 Maximum index for non-local projection operator          728
 Maximum index for augmentation-charges         3244 (set IRDMAX)


--------------------------------------------------------------------------------------------------------


 First call to EWALD:  gamma=   0.152
 Maximum number of real-space cells 3x 3x 3
 Maximum number of reciprocal cells 3x 3x 3

    FEWALD:  cpu time    0.0040: real time    0.0040


--------------------------------------- Iteration      1(   1)  ---------------------------------------


    POTLOK:  cpu time    0.2641: real time    0.2812
    SETDIJ:  cpu time    1.2057: real time    1.2058
     EDDAV:  cpu time   16.5557: real time   16.5611
       DOS:  cpu time    0.0008: real time    0.0008
    --------------------------------------------
      LOOP:  cpu time   18.0264: real time   18.0489

 eigenvalue-minimisations  :  3472
 total energy-change (2. order) : 0.1332707E+04  (-0.1105399E+05)
 number of electron     345.0000000 magnetization 
 augmentation part      345.0000000 magnetization 

 Free energy of the ion-electron system (eV)
  ---------------------------------------------------
  alpha Z        PSCENC =       872.70583573
  Ewald energy   TEWEN  =    -17927.15382825
  -Hartree energ DENC   =     -7430.66440716
  -exchange      EXHF   =         0.00000000
  -V(xc)+E(xc)   XCENC  =       908.11751498
  PAW double counting   =     21345.28103884   -22405.85761495
  entropy T*S    EENTRO =        -0.00033563
  eigenvalues    EBANDS =      -241.84011847
  atomic energy  EATOM  =     26212.11861568
  Solvation  Ediel_sol  =         0.00000000
  ---------------------------------------------------
  free energy    TOTEN  =      1332.70670077 eV

  energy without entropy =     1332.70703640  energy(sigma->0) =     1332.70686858


--------------------------------------------------------------------------------------------------------




--------------------------------------- Iteration      1(   2)  ---------------------------------------


     EDDAV:  cpu time   18.5143: real time   18.5493
       DOS:  cpu time    0.0004: real time    0.0004
    --------------------------------------------
      LOOP:  cpu time   18.5147: real time   18.5497

 eigenvalue-minimisations  :  4128
 total energy-change (2. order) :-0.2449530E+04  (-0.2370393E+04)
 number of electron     345.0000000 magnetization 
 augmentation part      345.0000000 magnetization 

 Free energy of the ion-electron system (eV)
  ---------------------------------------------------
  alpha Z        PSCENC =       872.70583573
  Ewald energy   TEWEN  =    -17927.15382825
  -Hartree energ DENC   =     -7430.66440716
  -exchange      EXHF   =         0.00000000
  -V(xc)+E(xc)   XCENC  =       908.11751498
  PAW double counting   =     21345.28103884   -22405.85761495
  entropy T*S    EENTRO =        -0.00000000
  eigenvalues    EBANDS =     -2691.37020742
  atomic energy  EATOM  =     26212.11861568
  Solvation  Ediel_sol  =         0.00000000
  ---------------------------------------------------
  free energy    TOTEN  =     -1116.82305255 eV

  energy without entropy =    -1116.82305255  energy(sigma->0) =    -1116.82305255


--------------------------------------------------------------------------------------------------------




--------------------------------------- Iteration      1(   3)  ---------------------------------------


     EDDAV:  cpu time   19.3690: real time   19.4169
       DOS:  cpu time    0.0004: real time    0.0004
    --------------------------------------------
      LOOP:  cpu time   19.3694: real time   19.4173

 eigenvalue-minimisations  :  4432
 total energy-change (2. order) :-0.3583836E+03  (-0.3565095E+03)
 number of electron     345.0000000 magnetization 
 augmentation part      345.0000000 magnetization 

 Free energy of the ion-electron system (eV)
  ---------------------------------------------------
  alpha Z        PSCENC =       872.70583573
  Ewald energy   TEWEN  =    -17927.15382825
  -Hartree energ DENC   =     -7430.66440716
  -exchange      EXHF   =         0.00000000
  -V(xc)+E(xc)   XCENC  =       908.11751498
  PAW double counting   =     21345.28103884   -22405.85761495
  entropy T*S    EENTRO =        -0.00000000
  eigenvalues    EBANDS =     -3049.75378711
  atomic energy  EATOM  =     26212.11861568
  Solvation  Ediel_sol  =         0.00000000
  ---------------------------------------------------
  free energy    TOTEN  =     -1475.20663224 eV

  energy without entropy =    -1475.20663224  energy(sigma->0) =    -1475.20663224


--------------------------------------------------------------------------------------------------------




--------------------------------------- Iteration      1(   4)  ---------------------------------------


     EDDAV:  cpu time   17.9405: real time   17.9437
       DOS:  cpu time    0.0004: real time    0.0004
    --------------------------------------------
      LOOP:  cpu time   17.9409: real time   17.9441

 eigenvalue-minimisations  :  3928
 total energy-change (2. order) :-0.1171006E+02  (-0.1167596E+02)
 number of electron     345.0000000 magnetization 
 augmentation part      345.0000000 magnetization 

 Free energy of the ion-electron system (eV)
  ---------------------------------------------------
  alpha Z        PSCENC =       872.70583573
  Ewald energy   TEWEN  =    -17927.15382825
  -Hartree energ DENC   =     -7430.66440716
  -exchange      EXHF   =         0.00000000
  -V(xc)+E(xc)   XCENC  =       908.11751498
  PAW double counting   =     21345.28103884   -22405.85761495
  entropy T*S    EENTRO =        -0.00000000
  eigenvalues    EBANDS =     -3061.46385029
  atomic energy  EATOM  =     26212.11861568
  Solvation  Ediel_sol  =         0.00000000
  ---------------------------------------------------
  free energy    TOTEN  =     -1486.91669542 eV

  energy without entropy =    -1486.91669542  energy(sigma->0) =    -1486.91669542


--------------------------------------------------------------------------------------------------------




--------------------------------------- Iteration      1(   5)  ---------------------------------------


     EDDAV:  cpu time   19.3843: real time   19.4073
       DOS:  cpu time    0.0004: real time    0.0004
    CHARGE:  cpu time    2.7263: real time    2.7264
    MIXING:  cpu time    0.0014: real time    0.0014
    --------------------------------------------
      LOOP:  cpu time   22.1125: real time   22.1356

 eigenvalue-minimisations  :  4432
 total energy-change (2. order) :-0.5260188E+00  (-0.5257850E+00)
 number of electron     344.0000000 magnetization 
 augmentation part       -5.0396397 magnetization 

 Broyden mixing:
  rms(total) = 0.10057E+01    rms(broyden)= 0.10051E+01
  rms(prec ) = 0.13974E+01
  weight for this iteration     100.00

 Free energy of the ion-electron system (eV)
  ---------------------------------------------------
  alpha Z        PSCENC =       872.70583573
  Ewald energy   TEWEN  =    -17927.15382825
  -Hartree energ DENC   =     -7430.66440716
  -exchange      EXHF   =         0.00000000
  -V(xc)+E(xc)   XCENC  =       908.11751498
  PAW double counting   =     21345.28103884   -22405.85761495
  entropy T*S    EENTRO =        -0.00000000
  eigenvalues    EBANDS =     -3061.98986904
  atomic energy  EATOM  =     26212.11861568
  Solvation  Ediel_sol  =         0.00000000
  ---------------------------------------------------
  free energy    TOTEN  =     -1487.44271418 eV

  energy without entropy =    -1487.44271418  energy(sigma->0) =    -1487.44271418


--------------------------------------------------------------------------------------------------------




--------------------------------------- Iteration      1(   6)  ---------------------------------------


    POTLOK:  cpu time    0.2891: real time    0.3127
    SETDIJ:  cpu time    1.1980: real time    1.1981
     EDDAV:  cpu time   19.0423: real time   19.0431
       DOS:  cpu time    0.0010: real time    0.0010
    CHARGE:  cpu time    2.7183: real time    2.7184
    MIXING:  cpu time    0.0017: real time    0.0017
    --------------------------------------------
      LOOP:  cpu time   23.2505: real time   23.2750

 eigenvalue-minimisations  :  4312
 total energy-change (2. order) : 0.7767848E+02  (-0.2359465E+01)
 number of electron     344.0000000 magnetization 
 augmentation part       -3.6416128 magnetization 

 Broyden mixing:
  rms(total) = 0.71803E+00    rms(broyden)= 0.71794E+00
  rms(prec ) = 0.90088E+00
  weight for this iteration     100.00

 eigenvalues of (default mixing * dielectric matrix)
  average eigenvalue GAMMA=   1.1820
  1.1820

 Free energy of the ion-electron system (eV)
  ---------------------------------------------------
  alpha Z        PSCENC =       872.70583573
  Ewald energy   TEWEN  =    -17927.15382825
  -Hartree energ DENC   =     -7410.93485235
  -exchange      EXHF   =         0.00000000
  -V(xc)+E(xc)   XCENC  =       936.06584557
  PAW double counting   =     21623.16798475   -22681.82209357
  entropy T*S    EENTRO =        -0.00000000
  eigenvalues    EBANDS =     -3033.91174640
  atomic energy  EATOM  =     26212.11861568
  Solvation  Ediel_sol  =         0.00000000
  ---------------------------------------------------
  free energy    TOTEN  =     -1409.76423884 eV

  energy without entropy =    -1409.76423884  energy(sigma->0) =    -1409.76423884


--------------------------------------------------------------------------------------------------------




--------------------------------------- Iteration      1(   7)  ---------------------------------------


    POTLOK:  cpu time    0.3035: real time    0.3061
    SETDIJ:  cpu time    1.1988: real time    1.1988
     EDDAV:  cpu time   18.3315: real time   18.3324
       DOS:  cpu time    0.0004: real time    0.0004
    CHARGE:  cpu time    2.7116: real time    2.7117
    MIXING:  cpu time    0.0015: real time    0.0015
    --------------------------------------------
      LOOP:  cpu time   22.5473: real time   22.5510

 eigenvalue-minimisations  :  4072
 total energy-change (2. order) : 0.5227804E+00  (-0.8593389E+00)
 number of electron     344.0000000 magnetization 
 augmentation part       -3.0840514 magnetization 

 Broyden mixing:
  rms(total) = 0.37131E+00    rms(broyden)= 0.37129E+00
  rms(prec ) = 0.41442E+00
  weight for this iteration     100.00

 eigenvalues of (default mixing * dielectric matrix)
  average eigenvalue GAMMA=   1.3015
  1.3015  1.3015

 Free energy of the ion-electron system (eV)
  ---------------------------------------------------
  alpha Z        PSCENC =       872.70583573
  Ewald energy   TEWEN  =    -17927.15382825
  -Hartree energ DENC   =     -7452.49770366
  -exchange      EXHF   =         0.00000000
  -V(xc)+E(xc)   XCENC  =       941.04460182
  PAW double counting   =     22229.34347276   -23285.97782412
  entropy T*S    EENTRO =        -0.00000000
  eigenvalues    EBANDS =     -2998.82462844
  atomic energy  EATOM  =     26212.11861568
  Solvation  Ediel_sol  =         0.00000000
  ---------------------------------------------------
  free energy    TOTEN  =     -1409.24145847 eV

  energy without entropy =    -1409.24145847  energy(sigma->0) =    -1409.24145847


--------------------------------------------------------------------------------------------------------




--------------------------------------- Iteration      1(   8)  ---------------------------------------


    POTLOK:  cpu time    0.2768: real time    0.2896
    SETDIJ:  cpu time    1.1983: real time    1.1984
     EDDAV:  cpu time   18.0696: real time   18.0706
       DOS:  cpu time    0.0004: real time    0.0004
    CHARGE:  cpu time    2.7099: real time    2.7100
    MIXING:  cpu time    0.0015: real time    0.0015
    --------------------------------------------
      LOOP:  cpu time   22.2566: real time   22.2705

 eigenvalue-minimisations  :  3984
 total energy-change (2. order) :-0.1759173E+00  (-0.4559802E-01)
 number of electron     344.0000000 magnetization 
 augmentation part       -3.1744886 magnetization 

 Broyden mixing:
  rms(total) = 0.21650E+00    rms(broyden)= 0.21649E+00
  rms(prec ) = 0.24635E+00
  weight for this iteration     100.00

 eigenvalues of (default mixing * dielectric matrix)
  average eigenvalue GAMMA=   1.6889
  1.1444  1.2764  2.6457

 Free energy of the ion-electron system (eV)
  ---------------------------------------------------
  alpha Z        PSCENC =       872.70583573
  Ewald energy   TEWEN  =    -17927.15382825
  -Hartree energ DENC   =     -7458.51014538
  -exchange      EXHF   =         0.00000000
  -V(xc)+E(xc)   XCENC  =       941.75355742
  PAW double counting   =     22460.04604896   -23517.02828772
  entropy T*S    EENTRO =        -0.00000000
  eigenvalues    EBANDS =     -2993.34917221
  atomic energy  EATOM  =     26212.11861568
  Solvation  Ediel_sol  =         0.00000000
  ---------------------------------------------------
  free energy    TOTEN  =     -1409.41737578 eV

  energy without entropy =    -1409.41737578  energy(sigma->0) =    -1409.41737578


--------------------------------------------------------------------------------------------------------




--------------------------------------- Iteration      1(   9)  ---------------------------------------


    POTLOK:  cpu time    0.3142: real time    0.3159
    SETDIJ:  cpu time    1.1977: real time    1.1978
     EDDAV:  cpu time   17.4102: real time   17.4110
       DOS:  cpu time    0.0004: real time    0.0004
    CHARGE:  cpu time    2.7134: real time    2.7135
    MIXING:  cpu time    0.0016: real time    0.0016
    --------------------------------------------
      LOOP:  cpu time   21.6374: real time   21.6402

 eigenvalue-minimisations  :  3752
 total energy-change (2. order) :-0.6677203E-01  (-0.1819236E-01)
 number of electron     344.0000000 magnetization 
 augmentation part       -3.2125034 magnetization 

 Broyden mixing:
  rms(total) = 0.45957E-01    rms(broyden)= 0.45953E-01
  rms(prec ) = 0.55418E-01
  weight for this iteration     100.00

 eigenvalues of (default mixing * dielectric matrix)
  average eigenvalue GAMMA=   1.4665
  2.5317  1.2450  1.2450  0.8444

 Free energy of the ion-electron system (eV)
  ---------------------------------------------------
  alpha Z        PSCENC =       872.70583573
  Ewald energy   TEWEN  =    -17927.15382825
  -Hartree energ DENC   =     -7465.71111408
  -exchange      EXHF   =         0.00000000
  -V(xc)+E(xc)   XCENC  =       943.67064212
  PAW double counting   =     22792.88063858   -23850.66610596
  entropy T*S    EENTRO =        -0.00000000
  eigenvalues    EBANDS =     -2987.32883162
  atomic energy  EATOM  =     26212.11861568
  Solvation  Ediel_sol  =         0.00000000
  ---------------------------------------------------
  free energy    TOTEN  =     -1409.48414781 eV

  energy without entropy =    -1409.48414781  energy(sigma->0) =    -1409.48414781


--------------------------------------------------------------------------------------------------------




--------------------------------------- Iteration      1(  10)  ---------------------------------------


    POTLOK:  cpu time    0.2910: real time    0.3086
    SETDIJ:  cpu time    1.1998: real time    1.1999
     EDDAV:  cpu time   18.9575: real time   18.9585
       DOS:  cpu time    0.0004: real time    0.0004
    CHARGE:  cpu time    2.7198: real time    2.7199
    MIXING:  cpu time    0.0016: real time    0.0016
    --------------------------------------------
      LOOP:  cpu time   23.1702: real time   23.1889

 eigenvalue-minimisations  :  4288
 total energy-change (2. order) :-0.3730126E-02  (-0.2443577E-02)
 number of electron     344.0000000 magnetization 
 augmentation part       -3.1998538 magnetization 

 Broyden mixing:
  rms(total) = 0.33005E-01    rms(broyden)= 0.33003E-01
  rms(prec ) = 0.41556E-01
  weight for this iteration     100.00

 eigenvalues of (default mixing * dielectric matrix)
  average eigenvalue GAMMA=   1.3002
  2.4244  1.3107  1.3107  0.8281  0.6272

 Free energy of the ion-electron system (eV)
  ---------------------------------------------------
  alpha Z        PSCENC =       872.70583573
  Ewald energy   TEWEN  =    -17927.15382825
  -Hartree energ DENC   =     -7464.08280949
  -exchange      EXHF   =         0.00000000
  -V(xc)+E(xc)   XCENC  =       943.52556672
  PAW double counting   =     22764.18567285   -23822.03935148
  entropy T*S    EENTRO =        -0.00000000
  eigenvalues    EBANDS =     -2988.74757969
  atomic energy  EATOM  =     26212.11861568
  Solvation  Ediel_sol  =         0.00000000
  ---------------------------------------------------
  free energy    TOTEN  =     -1409.48787794 eV

  energy without entropy =    -1409.48787794  energy(sigma->0) =    -1409.48787794


--------------------------------------------------------------------------------------------------------




--------------------------------------- Iteration      1(  11)  ---------------------------------------


    POTLOK:  cpu time    0.2557: real time    0.2970
    SETDIJ:  cpu time    1.2059: real time    1.2060
     EDDAV:  cpu time   17.5308: real time   17.5317
       DOS:  cpu time    0.0005: real time    0.0005
    CHARGE:  cpu time    2.7197: real time    2.7198
    MIXING:  cpu time    0.0018: real time    0.0018
    --------------------------------------------
      LOOP:  cpu time   21.7143: real time   21.7568

 eigenvalue-minimisations  :  3784
 total energy-change (2. order) :-0.1942332E-02  (-0.2796713E-03)
 number of electron     344.0000000 magnetization 
 augmentation part       -3.1986349 magnetization 

 Broyden mixing:
  rms(total) = 0.15944E-01    rms(broyden)= 0.15944E-01
  rms(prec ) = 0.23861E-01
  weight for this iteration     100.00

 eigenvalues of (default mixing * dielectric matrix)
  average eigenvalue GAMMA=   1.5976
  2.7450  2.7450  1.1998  1.1998  0.8480  0.8480

 Free energy of the ion-electron system (eV)
  ---------------------------------------------------
  alpha Z        PSCENC =       872.70583573
  Ewald energy   TEWEN  =    -17927.15382825
  -Hartree energ DENC   =     -7462.82438340
  -exchange      EXHF   =         0.00000000
  -V(xc)+E(xc)   XCENC  =       943.46484304
  PAW double counting   =     22748.64282574   -23806.67593186
  entropy T*S    EENTRO =        -0.00000000
  eigenvalues    EBANDS =     -2989.76779694
  atomic energy  EATOM  =     26212.11861568
  Solvation  Ediel_sol  =         0.00000000
  ---------------------------------------------------
  free energy    TOTEN  =     -1409.48982027 eV

  energy without entropy =    -1409.48982027  energy(sigma->0) =    -1409.48982027


--------------------------------------------------------------------------------------------------------




--------------------------------------- Iteration      1(  12)  ---------------------------------------


    POTLOK:  cpu time    0.3131: real time    0.3168
    SETDIJ:  cpu time    1.2060: real time    1.2061
     EDDAV:  cpu time   16.8934: real time   16.8942
       DOS:  cpu time    0.0004: real time    0.0004
    CHARGE:  cpu time    2.7286: real time    2.7288
    MIXING:  cpu time    0.0017: real time    0.0017
    --------------------------------------------
      LOOP:  cpu time   21.1432: real time   21.1479

 eigenvalue-minimisations  :  3568
 total energy-change (2. order) :-0.2941493E-02  (-0.5399665E-03)
 number of electron     344.0000000 magnetization 
 augmentation part       -3.2020543 magnetization 

 Broyden mixing:
  rms(total) = 0.10393E-01    rms(broyden)= 0.10392E-01
  rms(prec ) = 0.13274E-01
  weight for this iteration     100.00

 eigenvalues of (default mixing * dielectric matrix)
  average eigenvalue GAMMA=   1.5838
  2.8101  2.8101  1.3163  1.3163  0.8916  0.9712  0.9712

 Free energy of the ion-electron system (eV)
  ---------------------------------------------------
  alpha Z        PSCENC =       872.70583573
  Ewald energy   TEWEN  =    -17927.15382825
  -Hartree energ DENC   =     -7462.04439365
  -exchange      EXHF   =         0.00000000
  -V(xc)+E(xc)   XCENC  =       943.49870972
  PAW double counting   =     22742.67488491   -23801.00269192
  entropy T*S    EENTRO =        -0.00000000
  eigenvalues    EBANDS =     -2990.28989398
  atomic energy  EATOM  =     26212.11861568
  Solvation  Ediel_sol  =         0.00000000
  ---------------------------------------------------
  free energy    TOTEN  =     -1409.49276176 eV

  energy without entropy =    -1409.49276176  energy(sigma->0) =    -1409.49276176


--------------------------------------------------------------------------------------------------------




--------------------------------------- Iteration      1(  13)  ---------------------------------------


    POTLOK:  cpu time    0.2499: real time    0.2887
    SETDIJ:  cpu time    1.2041: real time    1.2041
     EDDAV:  cpu time   19.5079: real time   19.5088
       DOS:  cpu time    0.0004: real time    0.0004
    CHARGE:  cpu time    2.7238: real time    2.7239
    MIXING:  cpu time    0.0020: real time    0.0020
    --------------------------------------------
      LOOP:  cpu time   23.6881: real time   23.7279

 eigenvalue-minimisations  :  4464
 total energy-change (2. order) : 0.3299600E-03  (-0.1474571E-03)
 number of electron     344.0000000 magnetization 
 augmentation part       -3.2027456 magnetization 

 Broyden mixing:
  rms(total) = 0.50292E-02    rms(broyden)= 0.50286E-02
  rms(prec ) = 0.59871E-02
  weight for this iteration     100.00

 eigenvalues of (default mixing * dielectric matrix)
  average eigenvalue GAMMA=   1.5465
  3.1394  2.5348  1.5587  1.2289  1.0878  1.0878  0.9567  0.7776

 Free energy of the ion-electron system (eV)
  ---------------------------------------------------
  alpha Z        PSCENC =       872.70583573
  Ewald energy   TEWEN  =    -17927.15382825
  -Hartree energ DENC   =     -7463.05504504
  -exchange      EXHF   =         0.00000000
  -V(xc)+E(xc)   XCENC  =       943.55920305
  PAW double counting   =     22741.66487835   -23799.94409287
  entropy T*S    EENTRO =        -0.00000000
  eigenvalues    EBANDS =     -2989.38799844
  atomic energy  EATOM  =     26212.11861568
  Solvation  Ediel_sol  =         0.00000000
  ---------------------------------------------------
  free energy    TOTEN  =     -1409.49243180 eV

  energy without entropy =    -1409.49243180  energy(sigma->0) =    -1409.49243180


--------------------------------------------------------------------------------------------------------




--------------------------------------- Iteration      1(  14)  ---------------------------------------


    POTLOK:  cpu time    0.3017: real time    0.3126
    SETDIJ:  cpu time    1.2043: real time    1.2044
     EDDAV:  cpu time   17.8016: real time   17.8025
       DOS:  cpu time    0.0004: real time    0.0004
    CHARGE:  cpu time    2.7250: real time    2.7251
    MIXING:  cpu time    0.0018: real time    0.0018
    --------------------------------------------
      LOOP:  cpu time   22.0348: real time   22.0467

 eigenvalue-minimisations  :  3880
 total energy-change (2. order) : 0.5245159E-04  (-0.4217128E-04)
 number of electron     344.0000000 magnetization 
 augmentation part       -3.2018776 magnetization 

 Broyden mixing:
  rms(total) = 0.26175E-02    rms(broyden)= 0.26165E-02
  rms(prec ) = 0.33955E-02
  weight for this iteration     100.00

 eigenvalues of (default mixing * dielectric matrix)
  average eigenvalue GAMMA=   1.5371
  3.2040  2.2118  2.2118  1.0881  1.0881  1.1441  1.1441  0.8709  0.8709

 Free energy of the ion-electron system (eV)
  ---------------------------------------------------
  alpha Z        PSCENC =       872.70583573
  Ewald energy   TEWEN  =    -17927.15382825
  -Hartree energ DENC   =     -7463.34786359
  -exchange      EXHF   =         0.00000000
  -V(xc)+E(xc)   XCENC  =       943.57788276
  PAW double counting   =     22743.18651789   -23801.44510643
  entropy T*S    EENTRO =        -0.00000000
  eigenvalues    EBANDS =     -2989.13443314
  atomic energy  EATOM  =     26212.11861568
  Solvation  Ediel_sol  =         0.00000000
  ---------------------------------------------------
  free energy    TOTEN  =     -1409.49237935 eV

  energy without entropy =    -1409.49237935  energy(sigma->0) =    -1409.49237935


--------------------------------------------------------------------------------------------------------




--------------------------------------- Iteration      1(  15)  ---------------------------------------


    POTLOK:  cpu time    0.2714: real time    0.3110
    SETDIJ:  cpu time    1.2022: real time    1.2022
     EDDAV:  cpu time   18.0710: real time   18.0718
       DOS:  cpu time    0.0004: real time    0.0004
    CHARGE:  cpu time    2.7310: real time    2.7311
    MIXING:  cpu time    0.0021: real time    0.0021
    --------------------------------------------
      LOOP:  cpu time   22.2781: real time   22.3186

 eigenvalue-minimisations  :  3976
 total energy-change (2. order) : 0.1622046E-04  (-0.2965731E-05)
 number of electron     344.0000000 magnetization 
 augmentation part       -3.2019828 magnetization 

 Broyden mixing:
  rms(total) = 0.14672E-02    rms(broyden)= 0.14660E-02
  rms(prec ) = 0.20535E-02
  weight for this iteration     100.00

 eigenvalues of (default mixing * dielectric matrix)
  average eigenvalue GAMMA=   1.6309
  3.7464  2.5009  2.5009  1.2908  1.2908  1.1884  1.1884  0.9049  0.9049  0.7928

 Free energy of the ion-electron system (eV)
  ---------------------------------------------------
  alpha Z        PSCENC =       872.70583573
  Ewald energy   TEWEN  =    -17927.15382825
  -Hartree energ DENC   =     -7463.47191005
  -exchange      EXHF   =         0.00000000
  -V(xc)+E(xc)   XCENC  =       943.58161084
  PAW double counting   =     22743.79004284   -23802.04185285
  entropy T*S    EENTRO =        -0.00000000
  eigenvalues    EBANDS =     -2989.02087707
  atomic energy  EATOM  =     26212.11861568
  Solvation  Ediel_sol  =         0.00000000
  ---------------------------------------------------
  free energy    TOTEN  =     -1409.49236313 eV

  energy without entropy =    -1409.49236313  energy(sigma->0) =    -1409.49236313


--------------------------------------------------------------------------------------------------------




--------------------------------------- Iteration      1(  16)  ---------------------------------------


    POTLOK:  cpu time    0.2855: real time    0.2939
    SETDIJ:  cpu time    1.1997: real time    1.1998
     EDDAV:  cpu time   17.3973: real time   17.3981
       DOS:  cpu time    0.0004: real time    0.0004
    CHARGE:  cpu time    2.7213: real time    2.7215
    MIXING:  cpu time    0.0021: real time    0.0021
    --------------------------------------------
      LOOP:  cpu time   21.6064: real time   21.6159

 eigenvalue-minimisations  :  3744
 total energy-change (2. order) :-0.4258208E-04  (-0.3274204E-05)
 number of electron     344.0000000 magnetization 
 augmentation part       -3.2016428 magnetization 

 Broyden mixing:
  rms(total) = 0.64206E-03    rms(broyden)= 0.63932E-03
  rms(prec ) = 0.79518E-03
  weight for this iteration     100.00

 eigenvalues of (default mixing * dielectric matrix)
  average eigenvalue GAMMA=   1.6809
  4.2179  2.7650  2.1912  2.1188  1.1172  1.1172  1.1449  1.1449  0.9272  0.9272
  0.8189

 Free energy of the ion-electron system (eV)
  ---------------------------------------------------
  alpha Z        PSCENC =       872.70583573
  Ewald energy   TEWEN  =    -17927.15382825
  -Hartree energ DENC   =     -7463.53651090
  -exchange      EXHF   =         0.00000000
  -V(xc)+E(xc)   XCENC  =       943.57645253
  PAW double counting   =     22743.28740829   -23801.53324999
  entropy T*S    EENTRO =        -0.00000000
  eigenvalues    EBANDS =     -2988.95712880
  atomic energy  EATOM  =     26212.11861568
  Solvation  Ediel_sol  =         0.00000000
  ---------------------------------------------------
  free energy    TOTEN  =     -1409.49240571 eV

  energy without entropy =    -1409.49240571  energy(sigma->0) =    -1409.49240571


--------------------------------------------------------------------------------------------------------




--------------------------------------- Iteration      1(  17)  ---------------------------------------


    POTLOK:  cpu time    0.2574: real time    0.3114
    SETDIJ:  cpu time    1.2009: real time    1.2009
     EDDAV:  cpu time   17.9643: real time   17.9655
       DOS:  cpu time    0.0005: real time    0.0005
    CHARGE:  cpu time    2.7244: real time    2.7245
    MIXING:  cpu time    0.0019: real time    0.0019
    --------------------------------------------
      LOOP:  cpu time   22.1493: real time   22.2048

 eigenvalue-minimisations  :  3928
 total energy-change (2. order) :-0.1123172E-04  (-0.9053699E-06)
 number of electron     344.0000000 magnetization 
 augmentation part       -3.2015328 magnetization 

 Broyden mixing:
  rms(total) = 0.41432E-03    rms(broyden)= 0.41011E-03
  rms(prec ) = 0.45204E-03
  weight for this iteration     100.00

 eigenvalues of (default mixing * dielectric matrix)
  average eigenvalue GAMMA=   1.6737
  4.3845  3.0112  2.1726  2.1726  1.2375  1.2375  1.1400  1.1400  0.9855  0.9855
  0.8088  0.8088

 Free energy of the ion-electron system (eV)
  ---------------------------------------------------
  alpha Z        PSCENC =       872.70583573
  Ewald energy   TEWEN  =    -17927.15382825
  -Hartree energ DENC   =     -7463.51953664
  -exchange      EXHF   =         0.00000000
  -V(xc)+E(xc)   XCENC  =       943.57251285
  PAW double counting   =     22743.19894668   -23801.44311121
  entropy T*S    EENTRO =        -0.00000000
  eigenvalues    EBANDS =     -2988.97185177
  atomic energy  EATOM  =     26212.11861568
  Solvation  Ediel_sol  =         0.00000000
  ---------------------------------------------------
  free energy    TOTEN  =     -1409.49241694 eV

  energy without entropy =    -1409.49241694  energy(sigma->0) =    -1409.49241694


--------------------------------------------------------------------------------------------------------




--------------------------------------- Iteration      1(  18)  ---------------------------------------


    POTLOK:  cpu time    0.2508: real time    0.3111
    SETDIJ:  cpu time    1.1997: real time    1.1998
     EDDAV:  cpu time   14.7806: real time   14.7816
       DOS:  cpu time    0.0004: real time    0.0004
    CHARGE:  cpu time    2.7224: real time    2.7225
    MIXING:  cpu time    0.0020: real time    0.0020
    --------------------------------------------
      LOOP:  cpu time   18.9559: real time   19.0173

 eigenvalue-minimisations  :  2816
 total energy-change (2. order) : 0.7434493E-05  (-0.2191277E-06)
 number of electron     344.0000000 magnetization 
 augmentation part       -3.2015791 magnetization 

 Broyden mixing:
  rms(total) = 0.16420E-03    rms(broyden)= 0.15329E-03
  rms(prec ) = 0.17981E-03
  weight for this iteration     100.00

 eigenvalues of (default mixing * dielectric matrix)
  average eigenvalue GAMMA=   1.6719
  4.5666  2.9471  2.4669  2.0666  1.3202  1.3202  1.1597  1.1597  1.0322  1.0322
  0.8117  0.9259  0.9259

 Free energy of the ion-electron system (eV)
  ---------------------------------------------------
  alpha Z        PSCENC =       872.70583573
  Ewald energy   TEWEN  =    -17927.15382825
  -Hartree energ DENC   =     -7463.52388816
  -exchange      EXHF   =         0.00000000
  -V(xc)+E(xc)   XCENC  =       943.57251548
  PAW double counting   =     22743.28141729   -23801.52431365
  entropy T*S    EENTRO =        -0.00000000
  eigenvalues    EBANDS =     -2988.96876363
  atomic energy  EATOM  =     26212.11861568
  Solvation  Ediel_sol  =         0.00000000
  ---------------------------------------------------
  free energy    TOTEN  =     -1409.49240951 eV

  energy without entropy =    -1409.49240951  energy(sigma->0) =    -1409.49240951


--------------------------------------------------------------------------------------------------------




--------------------------------------- Iteration      1(  19)  ---------------------------------------


    POTLOK:  cpu time    0.2938: real time    0.3103
    SETDIJ:  cpu time    1.2011: real time    1.2012
     EDDAV:  cpu time   13.1721: real time   13.1728
       DOS:  cpu time    0.0004: real time    0.0004
    CHARGE:  cpu time    2.7281: real time    2.7282
    MIXING:  cpu time    0.0020: real time    0.0020
    --------------------------------------------
      LOOP:  cpu time   17.3974: real time   17.4148

 eigenvalue-minimisations  :  2248
 total energy-change (2. order) : 0.4976664E-05  (-0.4124734E-07)
 number of electron     344.0000000 magnetization 
 augmentation part       -3.2015910 magnetization 

 Broyden mixing:
  rms(total) = 0.11021E-03    rms(broyden)= 0.93218E-04
  rms(prec ) = 0.10472E-03
  weight for this iteration     100.00
  WARNING: grid for Broyden might be to small

 eigenvalues of (default mixing * dielectric matrix)
  average eigenvalue GAMMA=   1.6207
  4.6237  2.9896  2.4642  1.9895  1.3361  1.3361  1.2135  1.2135  1.0801  1.0801
  0.9514  0.9514  0.7982  0.6623

 Free energy of the ion-electron system (eV)
  ---------------------------------------------------
  alpha Z        PSCENC =       872.70583573
  Ewald energy   TEWEN  =    -17927.15382825
  -Hartree energ DENC   =     -7463.52789823
  -exchange      EXHF   =         0.00000000
  -V(xc)+E(xc)   XCENC  =       943.57278438
  PAW double counting   =     22743.38773622   -23801.63129192
  entropy T*S    EENTRO =        -0.00000000
  eigenvalues    EBANDS =     -2988.96435814
  atomic energy  EATOM  =     26212.11861568
  Solvation  Ediel_sol  =         0.00000000
  ---------------------------------------------------
  free energy    TOTEN  =     -1409.49240453 eV

  energy without entropy =    -1409.49240453  energy(sigma->0) =    -1409.49240453


--------------------------------------------------------------------------------------------------------




--------------------------------------- Iteration      1(  20)  ---------------------------------------


    POTLOK:  cpu time    0.2844: real time    0.3148
    SETDIJ:  cpu time    1.2011: real time    1.2012
     EDDAV:  cpu time   12.8140: real time   12.8147
       DOS:  cpu time    0.0006: real time    0.0006
    CHARGE:  cpu time    2.7267: real time    2.7268
    MIXING:  cpu time    0.0023: real time    0.0023
    --------------------------------------------
      LOOP:  cpu time   17.0291: real time   17.0604

 eigenvalue-minimisations  :  2128
 total energy-change (2. order) : 0.1807745E-05  (-0.2688997E-07)
 number of electron     344.0000000 magnetization 
 augmentation part       -3.2015922 magnetization 

 Broyden mixing:
  rms(total) = 0.85899E-04    rms(broyden)= 0.62638E-04
  rms(prec ) = 0.70151E-04
  weight for this iteration     100.00
  WARNING: grid for Broyden might be to small

 eigenvalues of (default mixing * dielectric matrix)
  average eigenvalue GAMMA=   1.6171
  4.7217  3.0569  2.4983  2.0370  2.0370  1.2464  1.2464  1.1374  1.1374  1.0139
  1.0139  0.9515  0.7967  0.7967  0.5651

 Free energy of the ion-electron system (eV)
  ---------------------------------------------------
  alpha Z        PSCENC =       872.70583573
  Ewald energy   TEWEN  =    -17927.15382825
  -Hartree energ DENC   =     -7463.53088127
  -exchange      EXHF   =         0.00000000
  -V(xc)+E(xc)   XCENC  =       943.57286455
  PAW double counting   =     22743.38000590   -23801.62219893
  entropy T*S    EENTRO =        -0.00000000
  eigenvalues    EBANDS =     -2988.96281612
  atomic energy  EATOM  =     26212.11861568
  Solvation  Ediel_sol  =         0.00000000
  ---------------------------------------------------
  free energy    TOTEN  =     -1409.49240272 eV

  energy without entropy =    -1409.49240272  energy(sigma->0) =    -1409.49240272


--------------------------------------------------------------------------------------------------------




--------------------------------------- Iteration      1(  21)  ---------------------------------------


    POTLOK:  cpu time    0.2895: real time    0.3127
    SETDIJ:  cpu time    1.2001: real time    1.2001
     EDDAV:  cpu time   12.4633: real time   12.4637
       DOS:  cpu time    0.0004: real time    0.0004
    --------------------------------------------
      LOOP:  cpu time   13.9533: real time   13.9769

 eigenvalue-minimisations  :  2000
 total energy-change (2. order) : 0.6411651E-06  (-0.7149369E-08)
 number of electron     344.0000000 magnetization 
 augmentation part       -3.2015922 magnetization 

 Free energy of the ion-electron system (eV)
  ---------------------------------------------------
  alpha Z        PSCENC =       872.70583573
  Ewald energy   TEWEN  =    -17927.15382825
  -Hartree energ DENC   =     -7463.53212819
  -exchange      EXHF   =         0.00000000
  -V(xc)+E(xc)   XCENC  =       943.57292801
  PAW double counting   =     22743.38318850   -23801.62545836
  entropy T*S    EENTRO =        -0.00000000
  eigenvalues    EBANDS =     -2988.96155521
  atomic energy  EATOM  =     26212.11861568
  Solvation  Ediel_sol  =         0.00000000
  ---------------------------------------------------
  free energy    TOTEN  =     -1409.49240208 eV

  energy without entropy =    -1409.49240208  energy(sigma->0) =    -1409.49240208


--------------------------------------------------------------------------------------------------------




 average (electrostatic) potential at core
  the test charge radii are     1.1312  1.1541  1.0178
  (the norm of the test charge is              1.0000)
       1 -55.2149       2 -55.2738       3 -55.1658       4 -55.2293       5 -55.3292
       6 -55.3259       7 -55.1527       8 -55.2071       9-101.5992      10-101.8775
      11-101.6176      12-101.6380      13-101.6132      14-101.9019      15-101.6216
      16-101.9699      17 -68.9634      18 -69.0067      19 -69.0640      20 -69.4385
      21 -69.0725      22 -68.9707      23 -68.9790      24 -68.9680      25 -68.9823
      26 -69.0094      27 -69.0096      28 -68.9694      29 -69.0312      30 -68.9696
      31 -69.0381      32 -68.9709      33 -69.0091      34 -68.9612      35 -68.9739
      36 -69.4637      37 -69.0195      38 -68.9872      39 -68.9607



 E-fermi :   0.4442     XC(G=0):  -7.9579     alpha+bet : -6.9586


 k-point     1 :       0.0000    0.0000    0.0000
  band No.  band energies     occupation 
      1     -20.8529      2.00000
      2     -20.8503      2.00000
      3     -20.8019      2.00000
      4     -20.7617      2.00000
      5     -20.7440      2.00000
      6     -20.7393      2.00000
      7     -20.7032      2.00000
      8     -20.6872      2.00000
      9     -16.7450      2.00000
     10     -16.7167      2.00000
     11     -16.6857      2.00000
     12     -16.6736      2.00000
     13     -16.6591      2.00000
     14     -16.6556      2.00000
     15     -16.6465      2.00000
     16     -16.6216      2.00000
     17     -16.5656      2.00000
     18     -16.5622      2.00000
     19     -16.5577      2.00000
     20     -16.5459      2.00000
     21     -16.5368      2.00000
     22     -16.5230      2.00000
     23     -16.5011      2.00000
     24     -16.4549      2.00000
     25     -16.4353      2.00000
     26     -16.4213      2.00000
     27     -16.4138      2.00000
     28     -16.4050      2.00000
     29     -16.3999      2.00000
     30     -16.3682      2.00000
     31     -16.3671      2.00000
     32     -16.3533      2.00000
     33     -16.3464      2.00000
     34     -16.2995      2.00000
     35     -16.2932      2.00000
     36     -16.2913      2.00000
     37     -16.2903      2.00000
     38     -16.2876      2.00000
     39     -16.2833      2.00000
     40     -16.2804      2.00000
     41     -16.2781      2.00000
     42     -16.2745      2.00000
     43     -16.2716      2.00000
     44     -16.2710      2.00000
     45     -16.2698      2.00000
     46     -16.2680      2.00000
     47     -16.2636      2.00000
     48     -16.2587      2.00000
     49     -14.5216      2.00000
     50     -14.4333      2.00000
     51     -14.3180      2.00000
     52     -14.1687      2.00000
     53     -14.1370      2.00000
     54     -14.1260      2.00000
     55     -14.0930      2.00000
     56     -14.0737      2.00000
     57     -14.0404      2.00000
     58     -14.0264      2.00000
     59     -14.0194      2.00000
     60     -14.0128      2.00000
     61     -14.0078      2.00000
     62     -14.0018      2.00000
     63     -13.9923      2.00000
     64     -13.9857      2.00000
     65     -13.9728      2.00000
     66     -13.9007      2.00000
     67     -13.8787      2.00000
     68     -13.7603      2.00000
     69     -13.7510      2.00000
     70     -13.7404      2.00000
     71     -13.7244      2.00000
     72      -8.2157      2.00000
     73      -7.7902      2.00000
     74      -7.7686      2.00000
     75      -7.7103      2.00000
     76      -7.3299      2.00000
     77      -7.2833      2.00000
     78      -7.2612      2.00000
     79      -7.2583      2.00000
     80      -7.2556      2.00000
     81      -7.2362      2.00000
     82      -7.2265      2.00000
     83      -7.2224      2.00000
     84      -7.2206      2.00000
     85      -7.1989      2.00000
     86      -7.1863      2.00000
     87      -7.1822      2.00000
     88      -7.1711      2.00000
     89      -7.1662      2.00000
     90      -7.1578      2.00000
     91      -7.1533      2.00000
     92      -7.1478      2.00000
     93      -7.1360      2.00000
     94      -7.1300      2.00000
     95      -7.1254      2.00000
     96      -7.1139      2.00000
     97      -7.1096      2.00000
     98      -7.1043      2.00000
     99      -7.1032      2.00000
    100      -7.0816      2.00000
    101      -7.0674      2.00000
    102      -7.0577      2.00000
    103      -6.5786      2.00000
    104      -3.4140      2.00000
    105      -3.3291      2.00000
    106      -3.2899      2.00000
    107      -3.2596      2.00000
    108      -3.2139      2.00000
    109      -3.1876      2.00000
    110      -3.1829      2.00000
    111      -3.1551      2.00000
    112      -3.1280      2.00000
    113      -3.0482      2.00000
    114      -2.9301      2.00000
    115      -2.9207      2.00000
    116      -2.2297      2.00000
    117      -2.1833      2.00000
    118      -2.1618      2.00000
    119      -2.0408      2.00000
    120      -2.0131      2.00000
    121      -2.0074      2.00000
    122      -1.9423      2.00000
    123      -1.9008      2.00000
    124      -1.8673      2.00000
    125      -1.8153      2.00000
    126      -1.7762      2.00000
    127      -1.7336      2.00000
    128      -1.7012      2.00000
    129      -1.6596      2.00000
    130      -1.6346      2.00000
    131      -1.5876      2.00000
    132      -1.5652      2.00000
    133      -1.5542      2.00000
    134      -1.5217      2.00000
    135      -1.5144      2.00000
    136      -1.5049      2.00000
    137      -1.4838      2.00000
    138      -1.4769      2.00000
    139      -1.4524      2.00000
    140      -1.4395      2.00000
    141      -1.4285      2.00000
    142      -1.4189      2.00000
    143      -1.4077      2.00000
    144      -1.3873      2.00000
    145      -1.3783      2.00000
    146      -1.3706      2.00000
    147      -1.3530      2.00000
    148      -1.3402      2.00000
    149      -1.3320      2.00000
    150      -1.3262      2.00000
    151      -1.3101      2.00000
    152      -1.3080      2.00000
    153      -1.2920      2.00000
[...]


--------------------------------------------------------------------------------------------------------


 soft charge-density along one line, spin component           1
         0         1         2         3         4         5         6         7         8         9
 total charge-density along one line

 pseudopotential strength for first ion, spin component:           1
 17.942  -4.697   0.000   0.001  -0.002  -0.000  -0.001   0.002
 -4.697   1.238  -0.000  -0.000   0.000   0.000   0.000  -0.000
  0.000  -0.000   2.252  -0.000  -0.000  -2.690   0.000   0.000
  0.001  -0.000  -0.000   2.253  -0.001   0.000  -2.692   0.002
 -0.002   0.000  -0.000  -0.001   2.252   0.000   0.002  -2.691
 -0.000   0.000  -2.690   0.000   0.000   3.182  -0.000  -0.000
 -0.001   0.000   0.000  -2.692   0.002  -0.000   3.184  -0.002
  0.002  -0.000   0.000   0.002  -2.691  -0.000  -0.002   3.182
 -0.000   0.000   0.000  -0.000   0.000  -0.000   0.000  -0.000
 -0.000   0.000   0.001   0.000  -0.000  -0.002  -0.000   0.000
  0.001  -0.000   0.000  -0.000   0.001  -0.000   0.001  -0.001
 -0.002   0.000  -0.000  -0.001   0.000   0.000   0.001  -0.001
  0.000  -0.000   0.000  -0.000  -0.002  -0.000   0.001   0.003
 total augmentation occupancy for first ion, spin component:           1
  1.912  -0.138   0.000   0.000  -0.000   0.000   0.001  -0.001  -0.000  -0.000   0.001  -0.002  -0.000
 -0.138   0.115   0.000   0.002  -0.004  -0.000  -0.002   0.003   0.001   0.001  -0.004   0.007   0.002
  0.000   0.000   2.016  -0.000  -0.001   0.003  -0.000  -0.001   0.001   0.003   0.000  -0.000   0.000
  0.000   0.002  -0.000   2.020  -0.005  -0.000   0.006  -0.003  -0.000   0.000  -0.001  -0.002  -0.000
 -0.000  -0.004  -0.001  -0.005   2.017  -0.001  -0.003   0.004   0.000  -0.000   0.001   0.002  -0.004
  0.000  -0.000   0.003  -0.000  -0.001   0.008   0.000   0.000  -0.001  -0.002  -0.000  -0.000  -0.000
  0.001  -0.002  -0.000   0.006  -0.003   0.000   0.007   0.002  -0.000  -0.000   0.002  -0.000   0.000
 -0.001   0.003  -0.001  -0.003   0.004   0.000   0.002   0.009  -0.000  -0.000  -0.001  -0.001   0.003
 -0.000   0.001   0.001  -0.000   0.000  -0.001  -0.000  -0.000   0.006   0.002  -0.000   0.000  -0.000
 -0.000   0.001   0.003   0.000  -0.000  -0.002  -0.000  -0.000   0.002   0.005  -0.000   0.000  -0.000
  0.001  -0.004   0.000  -0.001   0.001  -0.000   0.002  -0.001  -0.000  -0.000   0.005  -0.002  -0.001
 -0.002   0.007  -0.000  -0.002   0.002  -0.000  -0.000  -0.001   0.000   0.000  -0.002   0.004   0.001
 -0.000   0.002   0.000  -0.000  -0.004  -0.000   0.000   0.003  -0.000  -0.000  -0.001   0.001   0.005


------------------------ aborting loop because EDIFF is reached ----------------------------------------





 total charge     

# of ion       s       p       d       tot
------------------------------------------
    1        1.785   4.717   0.018   6.520
    2        1.785   4.717   0.018   6.519
    3        1.787   4.717   0.019   6.523
    4        1.786   4.717   0.018   6.521
    5        1.785   4.716   0.016   6.517
    6        1.785   4.716   0.018   6.519
    7        1.786   4.717   0.019   6.522
    8        1.786   4.717   0.018   6.521
    9        1.554   0.426   9.836  11.816
   10        1.532   0.437   9.831  11.800
   11        1.554   0.419   9.834  11.807
   12        1.553   0.412   9.833  11.797
   13        1.553   0.414   9.833  11.801
   14        1.532   0.434   9.831  11.798
   15        1.554   0.420   9.834  11.809
   16        1.541   0.438   9.828  11.807
   17        1.614   3.283   0.006   4.903
   18        1.615   3.283   0.007   4.905
   19        1.615   3.289   0.007   4.911
   20        1.616   3.269   0.007   4.892
   21        1.615   3.287   0.007   4.909
   22        1.615   3.283   0.007   4.905
   23        1.614   3.280   0.006   4.899
   24        1.614   3.280   0.006   4.900
   25        1.614   3.276   0.006   4.896
   26        1.614   3.279   0.006   4.899
   27        1.614   3.281   0.006   4.902
   28        1.614   3.283   0.006   4.903
   29        1.615   3.289   0.007   4.910
   30        1.614   3.276   0.006   4.895
   31        1.614   3.285   0.007   4.906
   32        1.614   3.279   0.006   4.899
   33        1.614   3.280   0.006   4.900
   34        1.614   3.282   0.006   4.902
   35        1.614   3.283   0.006   4.904
   36        1.616   3.271   0.007   4.894
   37        1.614   3.278   0.006   4.899
   38        1.614   3.280   0.006   4.899
   39        1.616   3.271   0.006   4.893
--------------------------------------------------
tot         63.790 116.578  78.952 259.320

    CHARGE:  cpu time    0.3999: real time    0.3999
    FORLOC:  cpu time    0.0114: real time    0.0114
    FORNL :  cpu time    1.9312: real time    1.9314
    STRESS:  cpu time   50.0944: real time   50.0966
    FORCOR:  cpu time    0.2420: real time    0.2420
    FORHAR:  cpu time    0.0274: real time    0.0274
    MIXING:  cpu time    0.0021: real time    0.0021
    OFIELD:  cpu time    0.0000: real time    0.0000

  FORCE on cell =-STRESS in cart. coord.  units (eV):
  Direction    XX          YY          ZZ          XY          YZ          ZX
  --------------------------------------------------------------------------------------
  Alpha Z   872.70584   872.70584   872.70584
  Ewald   -5903.65582 -5974.34216 -6049.23509    76.06717    49.21997  -102.71823
  Hartree  2546.61645  2471.91207  2445.00130    43.91050    25.99983   -78.04514
  E(xc)   -1449.22219 -1449.28646 -1449.27552     0.12869     0.05900    -0.03098
  Local   -3034.30663 -2886.43222 -2788.20727  -121.21964   -75.61513   181.40694
  n-local  1747.97252  1747.95490  1747.42788     1.57897     1.18785    -0.26602
  augment   818.27654   817.13282   817.44349     0.24309     0.23522    -0.45485
  Kinetic  4394.99155  4395.03712  4398.48372    -0.08141    -1.32374     0.05030
  Fock        0.00000     0.00000     0.00000     0.00000     0.00000     0.00000
  -------------------------------------------------------------------------------------
  Total      -6.62175    -5.31809    -5.65566     0.62737    -0.23701    -0.05798
  in kB      -6.65118    -5.34172    -5.68079     0.63016    -0.23806    -0.05823
  external pressure =       -5.89 kB  Pullay stress =        0.00 kB


 VOLUME and BASIS-vectors are now :
 -----------------------------------------------------------------------------
  energy-cutoff  :      300.00
  volume of cell :     1595.09
      direct lattice vectors                 reciprocal lattice vectors
     8.456489000  0.000000000  8.040301000     0.059126193 -0.000000000  0.062186727
     0.000000000 11.729847000  0.000000000     0.000000000  0.085252604 -0.000000000
    -8.456489000  0.000000000  8.040301000    -0.059126193  0.000000000  0.062186727

  length of vectors
    11.668703715 11.729847000 11.668703715     0.085808482  0.085252604  0.085808482


 FORCES acting on ions
    electron-ion (+dipol)            ewald-force                    non-local-force                 convergence-correction
 -----------------------------------------------------------------------------------------------
   0.368E+02 -.680E+01 -.392E+02   -.367E+02 0.679E+01 0.391E+02   -.160E+00 0.869E-02 0.110E+00   0.862E-04 0.701E-04 0.704E-04
   -.540E+01 -.364E+02 0.362E+02   0.537E+01 0.361E+02 -.359E+02   0.383E-01 0.252E+00 -.274E+00   -.181E-03 -.451E-04 0.146E-04
   0.285E+02 0.342E+02 -.182E+02   -.285E+02 -.341E+02 0.183E+02   0.477E-01 -.754E-01 -.148E+00   0.647E-04 -.758E-05 -.130E-03
   -.631E+02 0.104E+02 -.120E+02   0.630E+02 -.103E+02 0.121E+02   0.149E+00 -.817E-01 -.351E-01   -.603E-04 -.954E-04 -.293E-05
   -.422E+00 -.817E+01 0.226E+02   0.300E+00 0.812E+01 -.225E+02   0.126E+00 0.664E-01 -.137E+00   0.102E-03 0.115E-03 0.128E-03
   0.788E+02 -.429E+02 -.111E+02   -.783E+02 0.424E+02 0.108E+02   -.490E+00 0.437E+00 0.256E+00   -.996E-04 -.747E-04 -.103E-03
   -.221E+02 0.996E+01 0.613E+02   0.223E+02 -.101E+02 -.612E+02   -.156E+00 0.913E-01 -.414E-01   -.925E-04 -.675E-04 0.640E-04
   -.310E+02 0.802E+01 -.363E+02   0.308E+02 -.794E+01 0.361E+02   0.219E+00 -.820E-01 0.200E+00   0.250E-04 -.783E-04 -.321E-04
   -.115E+02 0.158E+01 -.102E+02   0.119E+02 -.185E+01 0.107E+02   -.477E+00 0.265E+00 -.498E+00   -.160E-03 -.657E-04 -.800E-04
   0.110E+01 0.110E+03 -.172E+02   -.701E+00 -.116E+03 0.182E+02   -.409E+00 0.600E+01 -.101E+01   0.839E-04 0.111E-02 -.791E-04
   0.275E+01 0.896E+01 0.904E+01   -.241E+01 -.929E+01 -.881E+01   -.329E+00 0.329E+00 -.217E+00   0.137E-03 -.194E-04 0.174E-03
   0.119E+01 -.250E+02 -.214E+02   -.111E+01 0.260E+02 0.227E+02   -.705E-01 -.102E+01 -.129E+01   -.563E-04 -.103E-03 -.178E-03
   -.192E+00 -.161E+02 -.134E+02   -.523E-01 0.167E+02 0.139E+02   0.261E+00 -.560E+00 -.588E+00   0.866E-04 0.136E-04 0.915E-04
   0.631E+02 0.385E+02 0.972E+02   -.660E+02 -.394E+02 -.102E+03   0.297E+01 0.961E+00 0.528E+01   0.495E-03 0.270E-03 0.918E-03
   -.215E+00 -.664E+00 -.255E+00   0.604E+00 0.120E+01 0.154E+00   -.377E+00 -.536E+00 0.965E-01   -.492E-04 0.679E-04 -.109E-03
   -.291E+02 -.200E+02 -.875E+01   0.271E+02 0.178E+02 0.674E+01   0.201E+01 0.223E+01 0.202E+01   0.933E-04 -.759E-04 0.764E-04
   -.690E+00 0.902E+01 0.396E+02   0.607E+00 -.901E+01 -.399E+02   0.695E-01 0.492E-02 0.249E+00   0.721E-04 -.715E-04 0.129E-03
   0.914E+01 0.146E+02 0.394E+02   -.912E+01 -.146E+02 -.398E+02   -.264E-01 0.990E-02 0.418E+00   -.335E-04 0.179E-04 -.162E-04
   -.172E+02 -.884E+01 0.307E+02   0.173E+02 0.881E+01 -.309E+02   -.149E+00 0.173E-01 0.183E+00   -.467E-04 0.345E-04 -.297E-04
   -.275E+02 -.444E+02 0.184E+02   0.277E+02 0.449E+02 -.187E+02   -.149E+00 -.467E+00 0.308E+00   0.550E-04 0.367E-04 0.418E-04
   0.180E+02 0.897E+01 -.288E+02   -.183E+02 -.901E+01 0.289E+02   0.243E+00 0.258E-01 -.119E+00   -.792E-04 -.362E-04 -.903E-04
   0.103E+01 -.897E+01 -.451E+02   -.966E+00 0.897E+01 0.455E+02   -.561E-01 0.377E-02 -.365E+00   0.202E-04 0.544E-04 0.108E-04
   0.471E+01 -.114E+02 -.896E+01   -.475E+01 0.113E+02 0.910E+01   0.525E-01 0.316E-01 -.126E+00   0.137E-04 0.674E-05 -.576E-05
   -.299E+02 0.919E+01 0.245E+02   0.301E+02 -.937E+01 -.248E+02   -.224E+00 0.169E+00 0.300E+00   0.369E-04 0.236E-04 0.719E-04
   0.147E+02 -.246E+02 -.109E+02   -.147E+02 0.249E+02 0.107E+02   0.367E-01 -.198E+00 0.204E+00   0.696E-04 -.395E-04 0.328E-04
   0.176E+02 -.158E+01 0.476E+02   -.179E+02 0.167E+01 -.478E+02   0.275E+00 -.952E-01 0.181E+00   -.695E-04 0.487E-04 0.399E-05
   -.272E+02 0.206E+01 -.159E+01   0.273E+02 -.195E+01 0.184E+01   -.119E+00 -.107E+00 -.230E+00   0.123E-04 0.447E-04 0.808E-04
   -.145E+02 -.236E+02 -.400E+02   0.148E+02 0.238E+02 0.402E+02   -.204E+00 -.148E+00 -.202E+00   -.412E-04 -.353E-04 -.448E-04
   0.277E+02 0.187E+01 -.978E+01   -.279E+02 -.185E+01 0.987E+01   0.174E+00 -.142E-01 -.884E-01   -.347E-04 -.554E-04 -.403E-04
   0.413E+01 0.356E+02 -.313E+02   -.435E+01 -.358E+02 0.315E+02   0.202E+00 0.224E+00 -.154E+00   0.262E-04 0.486E-04 -.356E-04
   -.271E+02 -.139E+02 0.221E+02   0.272E+02 0.141E+02 -.224E+02   -.153E+00 -.185E+00 0.279E+00   0.801E-05 0.757E-05 0.737E-04
   0.473E-01 -.219E+02 0.299E+02   0.153E+00 0.221E+02 -.302E+02   -.196E+00 -.179E+00 0.251E+00   -.375E-06 -.106E-04 -.369E-04
   0.359E+02 0.338E+02 0.435E+01   -.361E+02 -.340E+02 -.458E+01   0.208E+00 0.206E+00 0.223E+00   0.107E-03 0.392E-04 0.332E-04
   0.646E+01 0.194E+02 0.418E+02   -.666E+01 -.196E+02 -.420E+02   0.182E+00 0.200E+00 0.262E+00   -.815E-04 -.534E-04 -.736E-04
   0.413E+02 -.437E+01 -.240E+02   -.415E+02 0.447E+01 0.241E+02   0.203E+00 -.100E+00 -.187E+00   -.262E-04 0.606E-04 -.100E-03
   -.171E+02 -.299E+02 -.579E+02   0.172E+02 0.302E+02 0.585E+02   -.250E-01 -.255E+00 -.577E+00   0.272E-04 -.729E-04 -.127E-04
   -.438E+02 0.117E+02 -.103E+02   0.440E+02 -.120E+02 0.105E+02   -.235E+00 0.233E+00 -.230E+00   -.148E-04 0.382E-04 0.347E-04
   0.640E+01 0.239E+02 -.351E+02   -.625E+01 -.242E+02 0.354E+02   -.142E+00 0.235E+00 -.271E+00   0.588E-04 0.539E-04 0.779E-05
   -.341E+02 -.496E+02 -.363E+02   0.346E+02 0.501E+02 0.369E+02   -.486E+00 -.502E+00 -.564E+00   -.521E-04 -.654E-04 -.169E-04
 -----------------------------------------------------------------------------------------------
   -.284E+01 -.737E+01 -.337E+01   0.639E-13 -.711E-14 0.426E-13   0.283E+01 0.739E+01 0.346E+01   0.502E-03 0.109E-02 0.841E-03


 POSITION                                       TOTAL-FORCE (eV/Angst)
 -----------------------------------------------------------------------------------
      0.54435      2.93124      3.82714        -0.000145     -0.000130      0.000057
      0.31032      2.77447     12.10049         0.000257     -0.000126     -0.000128
      4.05784      8.96974      7.75065         0.000040     -0.000069     -0.000121
     -4.93066      8.87005      7.91679        -0.000119      0.000087      0.000155
     -3.79651      2.85744      8.08949         0.000004     -0.000105     -0.000126
      4.83407      2.91159      8.24983        -0.000148     -0.000100      0.000222
     -0.58476      8.79837     12.37849        -0.000140      0.000048      0.000231
     -0.40719      8.80269      3.96918         0.000308      0.000042     -0.000124
     -8.44303      0.02575      8.04817         0.000234     -0.000085     -0.000042
      0.08112     11.67955      8.07996         0.000443      0.000438     -0.000558
     -4.23683     11.72567     12.04066        -0.000402     -0.000216      0.000253
     -4.17853      0.05864      4.06126        -0.000315     -0.000362     -0.000410
      4.20328      5.80952      4.01089        -0.000325     -0.000082      0.000016
      4.17011      6.03200     12.01836        -0.000427      0.000283     -0.000144
     -0.00547      5.86078      0.00983         0.000727      0.000197     -0.000088
     -0.20943      5.76991      7.92418         0.000141      0.000031     -0.000139
     -4.15872      8.76591     11.57076        -0.000463      0.000021      0.000252
      4.45479      8.91087     11.43456         0.000276      0.000076     -0.000202
      0.04878      2.94973     15.68725        -0.000153      0.000022     -0.000195
      0.08345      2.75210      7.61725        -0.000014     -0.000016      0.000107
     -0.18466      8.81457      0.34281         0.000189      0.000021      0.000082
      4.10031      2.90248      4.60982        -0.000280      0.000016      0.000475
     -4.42800      3.06773      4.39792         0.000236      0.000133     -0.000098
     -5.92572      5.51067      9.60654         0.000019     -0.000221     -0.000024
      1.65814      6.20796      5.65913         0.000094     -0.000025      0.000075
      1.69909      6.27408     13.62258         0.000033     -0.000041     -0.000039
     -1.70988      0.28440     10.41792        -0.000041      0.000095      0.000037
     -1.69928      0.43147      2.43840         0.000008      0.000002     -0.000020
      6.04758     11.60069      6.36293         0.000084     -0.000098      0.000136
     -2.41600     11.25150      6.48603        -0.000030      0.000095      0.000200
     -5.92418      0.35687      9.63850        -0.000010      0.000161     -0.000006
      2.59108      0.37961      9.65109         0.000171     -0.000050      0.000297
      1.74921     11.22556      5.64635         0.000019      0.000063     -0.000056
      1.74125     11.32843     13.66649         0.000082     -0.000011     -0.000005
      5.93054      6.11423      6.45038        -0.000021     -0.000003      0.000065
     -2.68855      6.44832      6.30192        -0.000031      0.000046     -0.000134
     -1.83764      5.24745     10.36762         0.000055     -0.000421      0.000022
     -1.74342      5.47160      2.42815        -0.000128      0.000017      0.000046
      1.28460      7.54464      9.49525        -0.000227      0.000268     -0.000065
 -----------------------------------------------------------------------------------
    total drift:                               -0.002101      0.022692      0.093605


--------------------------------------------------------------------------------------------------------



  FREE ENERGIE OF THE ION-ELECTRON SYSTEM (eV)
  ---------------------------------------------------
  free  energy   TOTEN  =     -1409.49240208 eV

  energy  without entropy=    -1409.49240208  energy(sigma->0) =    -1409.49240208



--------------------------------------------------------------------------------------------------------


    POTLOK:  cpu time    1.4325: real time    1.4326


--------------------------------------------------------------------------------------------------------


 stress matrix after NEB project (eV)
     -6.62175      0.62741     -0.05798
      0.62737     -5.31809     -0.23711
     -0.05797     -0.23701     -5.65566
  FORCES: max atom, RMS     0.000836    0.000341
  FORCE total and by dimension    0.002129    0.000727
  Stress total and by dimension   10.248047    6.621752
     LOOP+:  cpu time  486.2292: real time  486.7777
    4ORBIT:  cpu time    0.0000: real time    0.0000



 total charge     

# of ion       s       p       d       tot
------------------------------------------
    1        1.785   4.717   0.018   6.520
    2        1.785   4.717   0.018   6.519
    3        1.787   4.717   0.019   6.523
    4        1.786   4.717   0.018   6.521
    5        1.785   4.716   0.016   6.517
    6        1.785   4.716   0.018   6.519
    7        1.786   4.717   0.019   6.522
    8        1.786   4.717   0.018   6.521
    9        1.554   0.426   9.836  11.816
   10        1.532   0.437   9.831  11.800
   11        1.554   0.419   9.834  11.807
   12        1.553   0.412   9.833  11.797
   13        1.553   0.414   9.833  11.801
   14        1.532   0.434   9.831  11.798
   15        1.554   0.420   9.834  11.809
   16        1.541   0.438   9.828  11.807
   17        1.614   3.283   0.006   4.903
   18        1.615   3.283   0.007   4.905
   19        1.615   3.289   0.007   4.911
   20        1.616   3.269   0.007   4.892
   21        1.615   3.287   0.007   4.909
   22        1.615   3.283   0.007   4.905
   23        1.614   3.280   0.006   4.899
   24        1.614   3.280   0.006   4.900
   25        1.614   3.276   0.006   4.896
   26        1.614   3.279   0.006   4.899
   27        1.614   3.281   0.006   4.902
   28        1.614   3.283   0.006   4.903
   29        1.615   3.289   0.007   4.910
   30        1.614   3.276   0.006   4.895
   31        1.614   3.285   0.007   4.906
   32        1.614   3.279   0.006   4.899
   33        1.614   3.280   0.006   4.900
   34        1.614   3.282   0.006   4.902
   35        1.614   3.283   0.006   4.904
   36        1.616   3.271   0.007   4.894
   37        1.614   3.278   0.006   4.899
   38        1.614   3.280   0.006   4.899
   39        1.616   3.271   0.006   4.893
--------------------------------------------------
tot         63.790 116.578  78.952 259.320


 total amount of memory used by VASP MPI-rank0    60634. kBytes
=======================================================================

   base      :      30000. kBytes
   nonlr-proj:       6469. kBytes
   fftplans  :       8423. kBytes
   grid      :       7465. kBytes
   one-center:         77. kBytes
   wavefun   :       8200. kBytes

  
  
 General timing and accounting informations for this job:
 ========================================================
  
                  Total CPU time used (sec):      498.512
                            User time (sec):      497.136
                          System time (sec):        1.376
                         Elapsed time (sec):      499.766
  
                   Maximum memory used (kb):       78256.
                   Average memory used (kb):           0.
  
                          Minor page faults:        21038
                          Major page faults:            2
                 Voluntary context switches:         1753
