CsPbBr3 cubic bulk                      
           1
     8.456489    0.000000    8.040301
     0.000000   11.729847    0.000000
    -8.456489    0.000000    8.040301
   Cs   Pb   Br
   8   8  23
Direct configuration=     1
   0.27018300  0.24989600  0.20581200
   0.77083800  0.23653100  0.73414200
   0.72191200  0.76469400  0.24206300
   0.20078800  0.75619500  0.78385000
   0.27858600  0.24360400  0.72753200
   0.79885000  0.24822100  0.22721000
   0.73520300  0.75008400  0.80435200
   0.22275500  0.75045200  0.27090600
   0.00128500  0.00219500  0.99969400
   0.50726300  0.99571200  0.49767000
   0.49826200  0.99964400  0.99927700
   0.00549600  0.00499900  0.49961700
   0.49794800  0.49527700  0.00090000
   0.99394500  0.51424400  0.50082000
   0.00028800  0.49964700  0.00093500
   0.48039600  0.49190000  0.50516200
   0.47365800  0.74731700  0.96543700
   0.97447300  0.75967500  0.44768300
   0.97842300  0.25147200  0.97265500
   0.47862600  0.23462400  0.46875800
   0.01040000  0.75146500  0.03223600
   0.52910500  0.24744400  0.04423400
   0.01168100  0.26153200  0.53530300
   0.24703400  0.46979900  0.94776400
   0.44996200  0.52924500  0.25388300
   0.94760400  0.53488200  0.74668300
   0.54675800  0.02424600  0.74895500
   0.05116400  0.03678400  0.25210800
   0.75326000  0.98898900  0.03811900
   0.26049600  0.95922000  0.54619400
   0.24911300  0.03042400  0.94966100
   0.75337000  0.03236300  0.44696900
   0.45455200  0.95700800  0.24770400
   0.95282800  0.96577800  0.74692100
   0.75177800  0.52125400  0.05047800
   0.23293200  0.54973600  0.55086000
   0.53607600  0.44735900  0.75338100
   0.04791700  0.46646800  0.25408100
   0.66643200  0.64320000  0.51452500
