       N       E                     dE             d eps       ncg     rms          rms(c)
DAV:   1     0.137563308763E+04    0.13756E+04   -0.11322E+05  3536   0.964E+02
DAV:   2    -0.112170146922E+04   -0.24973E+04   -0.23842E+04  4216   0.297E+02
DAV:   3    -0.149412146409E+04   -0.37242E+03   -0.36981E+03  4608   0.137E+02
DAV:   4    -0.150667807575E+04   -0.12557E+02   -0.12516E+02  4056   0.330E+01
DAV:   5    -0.150726635906E+04   -0.58828E+00   -0.58801E+00  4520   0.554E+00    0.108E+01
DAV:   6    -0.142644110209E+04    0.80825E+02   -0.23549E+01  4488   0.341E+01    0.751E+00
DAV:   7    -0.142592044883E+04    0.52065E+00   -0.11082E+01  4144   0.652E+00    0.392E+00
DAV:   8    -0.142610055840E+04   -0.18011E+00   -0.62812E-01  3936   0.242E+00    0.241E+00
DAV:   9    -0.142617298226E+04   -0.72424E-01   -0.22130E-01  3776   0.144E+00    0.498E-01
DAV:  10    -0.142617667836E+04   -0.36961E-02   -0.25144E-02  4912   0.494E-01    0.344E-01
DAV:  11    -0.142617867761E+04   -0.19992E-02   -0.23796E-03  4408   0.143E-01    0.179E-01
DAV:  12    -0.142618185665E+04   -0.31790E-02   -0.43589E-03  3864   0.166E-01    0.852E-02
DAV:  13    -0.142618158627E+04    0.27038E-03   -0.61268E-04  4640   0.772E-02    0.596E-02
DAV:  14    -0.142618145318E+04    0.13309E-03   -0.20976E-04  4016   0.300E-02    0.270E-02
DAV:  15    -0.142618142255E+04    0.30625E-04   -0.26084E-05  4576   0.136E-02    0.146E-02
DAV:  16    -0.142618139653E+04    0.26029E-04   -0.14117E-05  3664   0.962E-03    0.477E-03
DAV:  17    -0.142618140239E+04   -0.58683E-05   -0.54581E-06  3488   0.604E-03    0.286E-03
DAV:  18    -0.142618139583E+04    0.65593E-05   -0.23582E-06  2496   0.341E-03    0.227E-03
DAV:  19    -0.142618139458E+04    0.12546E-05   -0.20857E-06  2296   0.289E-03    0.175E-03
DAV:  20    -0.142618139408E+04    0.50039E-06   -0.35442E-07  2168   0.189E-03
   1 F= -.14261814E+04 E0= -.14261814E+04  d E =-.514260E-31
