CsPbBr3 cubic bulk                      
           1
     8.420018    0.000000    8.077981
     0.000000   11.763808    0.000000
    -8.420018    0.000000    8.077981
   Cs   Pb   Br
   8   8  24
Direct configuration=     1
   0.27212500  0.25000000  0.20823600
   0.81049623  0.29536960  0.65083389
   0.81915274  0.88177024  0.07974563
   0.32966199  0.89080432  0.71945068
   0.33625090  0.41222738  0.68415043
   0.82654521  0.36026915  0.17393336
   0.83274827  0.77338198  0.64430857
   0.33798823  0.75598225  0.19321439
   0.04407367  0.10113864  0.90553801
   0.51783245  0.07781616  0.41087810
   0.53055691  0.09090665  0.90615361
   0.03217944  0.09003184  0.42478091
   0.61509486  0.53687245  0.90997346
   0.08178167  0.59390009  0.39362797
   0.11602240  0.60711530  0.87649204
   0.58958615  0.59638973  0.40694043
   0.59303610  0.82004689  0.87239464
   0.97989158  0.84796674  0.36662178
   0.07636602  0.35578113  0.80805750
   0.60165279  0.31909500  0.37834726
   0.11300958  0.85083920  0.95479542
   0.52860316  0.82996287  0.41152888
   0.53887054  0.35407792  0.03081004
   0.09076362  0.32319451  0.45916583
   0.36289485  0.59111373  0.90186855
   0.84115633  0.52581350  0.41489957
   0.64615684  0.61367709  0.15953358
   0.13141220  0.66370598  0.62557618
   0.47317848  0.15252835  0.66254932
   0.01070333  0.11339063  0.16149585
   0.77394278  0.14563818  0.92002905
   0.26029586  0.01758838  0.39278114
   0.28433171  0.09054436  0.91585444
   0.78113528  0.07584075  0.41798666
   0.51698623  0.01783040  0.15783212
   0.02547653  0.02316133  0.65594664
   0.85357375  0.60088308  0.90509311
   0.33660483  0.54623234  0.41271622
   0.63009531  0.53594791  0.65186561
   0.11135706  0.51514801  0.13805889
