 vasp.5.4.4.18Apr17-6-g9f103f2a35 (build Jun 22 2020 09:27:21) complex           
 executed on tx2_gcc-7.3_libsci-1 date 2021.10.12  05:43:25
 running on   64 total cores
 distrk:  each k-point on   64 cores,    1 groups
 distr:  one band on NCORES_PER_BAND=   8 cores,    8 groups


--------------------------------------------------------------------------------------------------------


 INCAR:
 POTCAR:    PAW_PBE Cs_sv 08Apr2002               
 POTCAR:    PAW_PBE Pb_d 06Sep2000                
 POTCAR:    PAW_PBE Br 06Sep2000                  
 POTCAR:    PAW_PBE Cs_sv 08Apr2002               
   SHA256 =  c1463496f0f6037ed62c6012a8013a89ee9ad6ffb38599dcd6c079e7ed31779b Cs
   COPYR  = (c) Copyright 08Apr2002 Georg Kresse                                
   COPYR  = This file is part of the software VASP. Any use, copying, and all ot
   COPYR  = If you do not have a valid VASP license, you may not use, copy or di
   VRHFIN =Cs: 5s5p6s                                                           
   LEXCH  = PE                                                                  
   EATOM  =   555.6835 eV,   40.8416 Ry                                         
                                                                                
   TITEL  = PAW_PBE Cs_sv 08Apr2002                                             
   LULTRA =        F    use ultrasoft PP ?                                      
   IUNSCR =        1    unscreen: 0-lin 1-nonlin 2-no                           
   RPACOR =    2.200    partial core radius                                     
   POMASS =  132.900; ZVAL   =    9.000    mass and valenz                      
   RCORE  =    2.500    outmost cutoff radius                                   
   RWIGS  =    2.500; RWIGS  =    1.323    wigner-seitz radius (au A)           
   ENMAX  =  220.318; ENMIN  =  165.238 eV                                      
   RCLOC  =    2.207    cutoff for local pot                                    
   LCOR   =        T    correct aug charges                                     
   LPAW   =        T    paw PP                                                  
   EAUG   =  407.933                                                            
   DEXC   =    0.000                                                            
   RMAX   =    2.554    core radius for proj-oper                               
   RAUG   =    1.300    factor for augmentation sphere                          
   RDEP   =    2.590    radius for radial grids                                 
   RDEPT  =    2.117    core radius for aug-charge                              
                                                                                
   Atomic configuration                                                         
   13 entries                                                                   
     n  l   j            E        occ.                                          
     1  0  0.50    -35790.1377   2.0000                                         
     2  0  0.50     -5613.6201   2.0000                                         
     2  1  1.50     -5035.0101   6.0000                                         
     3  0  0.50     -1167.0767   2.0000                                         
     3  1  1.50      -980.9754   6.0000                                         
     3  2  2.50      -708.0703  10.0000                                         
     4  0  0.50      -220.2386   2.0000                                         
     4  1  1.50      -160.7596   6.0000                                         
     4  2  2.50       -74.2354  10.0000                                         
     5  0  0.50       -26.7287   2.0000                                         
     6  0  0.50        -2.0862   1.0000                                         
     5  1  1.50       -13.5159   6.0000                                         
     5  2  2.50        -0.4136   0.0000                                         
   Description                                                                  
     l       E           TYP  RCUT    TYP  RCUT                                 
     0    -26.7287425     23  1.900                                             
     0     -2.0862306     23  1.900                                             
     1    -13.5158719     23  2.500                                             
     1     -2.7211652     23  2.500                                             
     2     -0.4136171     23  2.500                                             
  local pseudopotential read in
  partial core-charges read in
  partial kinetic energy density read in
  atomic valenz-charges read in
  non local Contribution for L=           0  read in
    real space projection operators read in
  non local Contribution for L=           0  read in
    real space projection operators read in
  non local Contribution for L=           1  read in
    real space projection operators read in
  non local Contribution for L=           1  read in
    real space projection operators read in
  non local Contribution for L=           2  read in
    real space projection operators read in
    PAW grid and wavefunctions read in

   number of l-projection  operators is LMAX  =           5
   number of lm-projection operators is LMMAX =          13

 POTCAR:    PAW_PBE Pb_d 06Sep2000                
   SHA256 =  fb885b08f0fba73a15f6a6b0e39bd200c13ec96ef97cf3ecd8e63bade5137abd Pb
   COPYR  = (c) Copyright 06Sep2000 Georg Kresse                                
   COPYR  = This file is part of the software VASP. Any use, copying, and all ot
   COPYR  = If you do not have a valid VASP license, you may not use, copy or di
   VRHFIN =Pb:                                                                  
   LEXCH  = PE                                                                  
   EATOM  =  1661.6185 eV,  122.1255 Ry                                         
                                                                                
   TITEL  = PAW_PBE Pb_d 06Sep2000                                              
   LULTRA =        F    use ultrasoft PP ?                                      
   IUNSCR =        1    unscreen: 0-lin 1-nonlin 2-no                           
   RPACOR =    2.200    partial core radius                                     
   POMASS =  207.200; ZVAL   =   14.000    mass and valenz                      
   RCORE  =    2.500    outmost cutoff radius                                   
   RWIGS  =    3.260; RWIGS  =    1.725    wigner-seitz radius (au A)           
   ENMAX  =  237.835; ENMIN  =  178.376 eV                                      
   ICORE  =        3    local potential                                         
   LCOR   =        T    correct aug charges                                     
   LPAW   =        T    paw PP                                                  
   EAUG   =  391.914                                                            
   DEXC   =    0.000                                                            
   RMAX   =    2.565    core radius for proj-oper                               
   RAUG   =    1.300    factor for augmentation sphere                          
   RDEP   =    2.643    radius for radial grids                                 
   RDEPT  =    2.092    core radius for aug-charge                              
                                                                                
   Atomic configuration                                                         
   16 entries                                                                   
     n  l   j            E        occ.                                          
     1  0  0.50    -88091.8466   2.0000                                         
     2  0  0.50    -15753.4197   2.0000                                         
     2  1  1.50    -13508.1797   6.0000                                         
     3  0  0.50     -3781.7194   2.0000                                         
     3  1  1.50     -3138.2529   6.0000                                         
     3  2  2.50     -2483.2977  10.0000                                         
     4  0  0.50      -856.2895   2.0000                                         
     4  1  1.50      -645.4942   6.0000                                         
     4  2  2.50      -401.8768  10.0000                                         
     4  3  3.50      -132.9059  14.0000                                         
     5  0  0.50      -144.0950   2.0000                                         
     5  1  1.50       -85.7879   6.0000                                         
     5  2  2.50       -21.1769  10.0000                                         
     6  0  0.50       -12.0372   2.0000                                         
     6  1  1.50        -3.4971   2.0000                                         
     5  3  2.50        -2.7212   0.0000                                         
   Description                                                                  
     l       E           TYP  RCUT    TYP  RCUT                                 
     2    -21.1768523     23  2.500                                             
     2      1.3605826     23  2.500                                             
     0    -12.0371562     23  2.500                                             
     0     13.6058260     23  2.500                                             
     1     -3.4971339     23  2.500                                             
     1     13.6058260     23  2.500                                             
     3     -1.3605826      7  2.500                                             
  local pseudopotential read in
  partial core-charges read in
  partial kinetic energy density read in
  atomic valenz-charges read in
  non local Contribution for L=           2  read in
    real space projection operators read in
  non local Contribution for L=           2  read in
    real space projection operators read in
  non local Contribution for L=           0  read in
    real space projection operators read in
  non local Contribution for L=           0  read in
    real space projection operators read in
  non local Contribution for L=           1  read in
    real space projection operators read in
  non local Contribution for L=           1  read in
    real space projection operators read in
    PAW grid and wavefunctions read in

   number of l-projection  operators is LMAX  =           6
   number of lm-projection operators is LMMAX =          18

 POTCAR:    PAW_PBE Br 06Sep2000                  
   SHA256 =  96a73d2954943bbee26f4990d676cc6c3bf44b8dd2c75cd4b3b825d8403f0103 Br
   COPYR  = (c) Copyright 06Sep2000 Georg Kresse                                
   COPYR  = This file is part of the software VASP. Any use, copying, and all ot
   COPYR  = If you do not have a valid VASP license, you may not use, copy or di
   VRHFIN =Br: s2p5                                                             
   LEXCH  = PE                                                                  
   EATOM  =   368.4488 eV,   27.0802 Ry                                         
                                                                                
   TITEL  = PAW_PBE Br 06Sep2000                                                
   LULTRA =        F    use ultrasoft PP ?                                      
   IUNSCR =        1    unscreen: 0-lin 1-nonlin 2-no                           
   RPACOR =    1.900    partial core radius                                     
   POMASS =   79.904; ZVAL   =    7.000    mass and valenz                      
   RCORE  =    2.100    outmost cutoff radius                                   
   RWIGS  =    2.200; RWIGS  =    1.164    wigner-seitz radius (au A)           
   ENMAX  =  216.285; ENMIN  =  162.214 eV                                      
   ICORE  =        3    local potential                                         
   LCOR   =        T    correct aug charges                                     
   LPAW   =        T    paw PP                                                  
   EAUG   =  503.852                                                            
   DEXC   =    0.000                                                            
   RMAX   =    2.139    core radius for proj-oper                               
   RAUG   =    1.300    factor for augmentation sphere                          
   RDEP   =    2.186    radius for radial grids                                 
   RDEPT  =    1.890    core radius for aug-charge                              
                                                                                
   Atomic configuration                                                         
   10 entries                                                                   
     n  l   j            E        occ.                                          
     1  0  0.50    -13316.2796   2.0000                                         
     2  0  0.50     -1732.8239   2.0000                                         
     2  1  1.50     -1528.2193   6.0000                                         
     3  0  0.50      -238.0460   2.0000                                         
     3  1  1.50      -173.4609   6.0000                                         
     3  2  2.50       -66.7132  10.0000                                         
     4  0  0.50       -20.1334   2.0000                                         
     4  1  0.50        -7.8591   5.0000                                         
     4  2  2.50        -8.1635   0.0000                                         
     4  3  2.50        -8.1635   0.0000                                         
   Description                                                                  
     l       E           TYP  RCUT    TYP  RCUT                                 
     0    -20.1333652     23  2.100                                             
     0    -21.4939478     23  2.100                                             
     1     -7.8591052     23  2.100                                             
     1     -3.1608434     23  2.100                                             
     2     -8.1634956     23  2.100                                             
     3     -1.3605826      7  2.100                                             
  local pseudopotential read in
  partial core-charges read in
  partial kinetic energy density read in
  atomic valenz-charges read in
  non local Contribution for L=           0  read in
    real space projection operators read in
  non local Contribution for L=           0  read in
    real space projection operators read in
  non local Contribution for L=           1  read in
    real space projection operators read in
  non local Contribution for L=           1  read in
    real space projection operators read in
  non local Contribution for L=           2  read in
    real space projection operators read in
    PAW grid and wavefunctions read in

   number of l-projection  operators is LMAX  =           5
   number of lm-projection operators is LMMAX =          13

 Optimization of the real space projectors (new method)

 maximal supplied QI-value         = 15.12
 optimisation between [QCUT,QGAM] = [  8.77, 17.69] = [ 21.53, 87.61] Ry 
 Optimized for a Real-space Cutoff    1.85 Angstroem

   l    n(q)    QCUT    max X(q) W(low)/X(q) W(high)/X(q)  e(spline) 
   0     10     8.768    25.322    0.81E-04    0.51E-04    0.48E-06
   0     10     8.768    99.187    0.78E-04    0.50E-04    0.47E-06
   1      9     8.768    11.761    0.21E-03    0.20E-03    0.37E-06
   1      9     8.768     8.275    0.24E-03    0.22E-03    0.41E-06
   2      9     8.768     3.829    0.23E-04    0.15E-03    0.18E-06
 Optimization of the real space projectors (new method)

 maximal supplied QI-value         = 15.12
 optimisation between [QCUT,QGAM] = [  8.77, 17.69] = [ 21.53, 87.61] Ry 
 Optimized for a Real-space Cutoff    1.59 Angstroem

   l    n(q)    QCUT    max X(q) W(low)/X(q) W(high)/X(q)  e(spline) 
   2      7     8.768     3.846    0.48E-04    0.11E-03    0.11E-06
   2      7     8.768     8.593    0.20E-03    0.22E-04    0.24E-06
   0      8     8.768    20.082    0.68E-04    0.88E-04    0.41E-07
   0      8     8.768     8.597    0.89E-04    0.13E-03    0.59E-07
   1      8     8.768    33.223    0.15E-03    0.53E-04    0.87E-07
   1      8     8.768    15.899    0.14E-03    0.44E-04    0.78E-07
 Optimization of the real space projectors (new method)

 maximal supplied QI-value         = 17.95
 optimisation between [QCUT,QGAM] = [  8.80, 17.59] = [ 21.67, 86.68] Ry 
 Optimized for a Real-space Cutoff    1.59 Angstroem

   l    n(q)    QCUT    max X(q) W(low)/X(q) W(high)/X(q)  e(spline) 
   0      8     8.797   175.082    0.82E-04    0.14E-03    0.89E-07
   0      8     8.797   174.004    0.79E-04    0.14E-03    0.86E-07
   1      8     8.797    54.315    0.16E-03    0.14E-04    0.30E-06
   1      8     8.797    42.441    0.16E-03    0.14E-04    0.30E-06
   2      7     8.797     3.596    0.92E-04    0.15E-03    0.85E-07
  PAW_PBE Cs_sv 08Apr2002               :
 energy of atom  1       EATOM= -555.6835
 kinetic energy error for atom=    0.0069 (will be added to EATOM!!)
  PAW_PBE Pb_d 06Sep2000                :
 energy of atom  2       EATOM=-1661.6185
 kinetic energy error for atom=    0.0498 (will be added to EATOM!!)
  PAW_PBE Br 06Sep2000                  :
 energy of atom  3       EATOM= -368.4488
 kinetic energy error for atom=    0.0072 (will be added to EATOM!!)


 POSCAR: Cs8 Pb8 Br23                            
  positions in direct lattice
  No initial velocities read in

 METAGGA = SCAN     LMAXTAU =  6    LMIXTAU =  F

 exchange correlation table for  LEXCH =        8
   RHO(1)=    0.500       N(1)  =     2000
   RHO(2)=  100.500       N(2)  =     4000

 VTST: version 3.2, (02/03/18)

 CHAIN: initializing optimizer
 
 OPT: Using VASP Conjugate-Gradient optimizer
 CHAIN: Read ICHAIN            0

 POSCAR: Cs8 Pb8 Br23                            
  positions in direct lattice
  No initial velocities read in



--------------------------------------------------------------------------------------------------------


 ion  position               nearest neighbor table
   1  0.272  0.250  0.182-
   2  0.771  0.255  0.760-
   3  0.706  0.749  0.249-
   4  0.213  0.746  0.785-
   5  0.268  0.257  0.751-
   6  0.805  0.250  0.215-
   7  0.722  0.750  0.777-
   8  0.246  0.741  0.289-
   9  0.006  0.995  0.999-  21 2.94  30 2.97  34 2.97  32 3.00  19 3.00  29 3.09
  10  0.491  0.040  0.494-  20 2.76  31 2.92  33 2.97  28 2.97
  11  0.505  0.002  0.994-  23 2.96  17 2.96  32 2.97  30 3.00  28 3.01  33 3.04
  12  0.031  0.994  0.504-  31 2.89  29 2.93  18 2.96  24 3.03  34 3.07
  13  0.506  0.500  0.995-  25 2.97  23 2.97  17 2.97  37 2.97  26 2.98  35 2.99
  14  0.001  0.495  0.501-  36 2.82  24 2.97  38 3.00  27 3.01  18 3.10
  15  0.005  0.504  0.001-  21 2.95  35 2.96  25 2.98  19 3.00  27 3.02  38 3.03
  16  0.492  0.483  0.496-  26 2.97  37 2.97  22 2.98  20 3.12  36 3.16  39 3.20
  17  0.484  0.751  0.973-  11 2.96  13 2.97
  18  0.966  0.754  0.455-  12 2.96  14 3.10
  19  0.001  0.249  0.974-  15 3.00   9 3.00
  20  0.374  0.244  0.472-  10 2.76  16 3.12
  21  0.036  0.750  0.045-   9 2.94  15 2.95
  22  0.550  0.730  0.507-  16 2.98
  23  0.539  0.250  0.024-  11 2.96  13 2.97
  24  0.012  0.248  0.551-  14 2.97  12 3.03
  25  0.253  0.482  0.955-  13 2.97  15 2.98
  26  0.461  0.518  0.244-  16 2.97  13 2.98
  27  0.949  0.536  0.748-  14 3.01  15 3.02
  28  0.549  0.035  0.744-  10 2.97  11 3.01
  29  0.056  0.036  0.259-  12 2.93   9 3.09
  30  0.758  0.978  0.045-   9 2.97  11 3.00
  31  0.271  0.940  0.548-  12 2.89  10 2.92
  32  0.254  0.021  0.947-  11 2.97   9 3.00
  33  0.462  0.977  0.248-  10 2.97  11 3.04
  34  0.956  0.959  0.750-   9 2.97  12 3.07
  35  0.758  0.522  0.046-  15 2.96  13 2.99
  36  0.236  0.538  0.554-  14 2.82  16 3.16
  37  0.542  0.467  0.747-  16 2.97  13 2.97
  38  0.054  0.461  0.254-  14 3.00  15 3.03
  39  0.689  0.296  0.469-  16 3.20


IMPORTANT INFORMATION: All symmetrisations will be switched off!
NOSYMM: (Re-)initialisation of all symmetry stuff for point group C_1.



 KPOINTS: 1x1x1                                   

Automatic generation of k-mesh.
Space group operators:
 irot       det(A)        alpha          n_x          n_y          n_z        tau_x        tau_y        tau_z
    1     1.000000     0.000001     1.000000     0.000000     0.000000     0.000000     0.000000     0.000000
 
 Subroutine IBZKPT returns following result:
 ===========================================
 
 Found      8 irreducible k-points:
 
 Following reciprocal coordinates:
            Coordinates               Weight
  0.000000  0.000000  0.000000      1.000000
  0.500000  0.000000  0.000000      1.000000
  0.000000  0.500000  0.000000      1.000000
  0.500000  0.500000  0.000000      1.000000
  0.000000  0.000000  0.500000      1.000000
  0.500000  0.000000  0.500000      1.000000
  0.000000  0.500000  0.500000      1.000000
  0.500000  0.500000  0.500000      1.000000
 
 Following cartesian coordinates:
            Coordinates               Weight
 -0.000000  0.000000  0.000000      1.000000
  0.029563  0.000000  0.031093      1.000000
 -0.000000  0.042626  0.000000      1.000000
  0.029563  0.042626  0.031093      1.000000
 -0.029563  0.000000  0.031093      1.000000
  0.000000  0.000000  0.062187      1.000000
 -0.029563  0.042626  0.031093      1.000000
  0.000000  0.042626  0.062187      1.000000
 


--------------------------------------------------------------------------------------------------------




 Dimension of arrays:
   k-points           NKPTS =      8   k-points in BZ     NKDIM =      8   number of bands    NBANDS=    208
   number of dos      NEDOS =    301   number of ions     NIONS =     39
   non local maximal  LDIM  =      6   non local SUM 2l+1 LMDIM =     18
   total plane-waves  NPLWV = 343000
   max r-space proj   IRMAX =   5734   max aug-charges    IRDMAX=  91523
   dimension x,y,z NGX =    70 NGY =   70 NGZ =   70
   dimension x,y,z NGXF=   140 NGYF=  140 NGZF=  140
   support grid    NGXF=   280 NGYF=  280 NGZF=  280
   ions per type =               8   8  23
   NGX,Y,Z   is equivalent  to a cutoff of   9.97,  9.92,  9.97 a.u.
   NGXF,Y,Z  is equivalent  to a cutoff of  19.95, 19.84, 19.95 a.u.

 SYSTEM =  CsPbBr3 cubic bulk                      
 POSCAR =  Cs8 Pb8 Br23                            

 Startparameter for this run:
   NWRITE =      2    write-flag & timer
   PREC   = accura    normal or accurate (medium, high low for compatibility)
   ISTART =      0    job   : 0-new  1-cont  2-samecut
   ICHARG =      2    charge: 1-file 2-atom 10-const
   ISPIN  =      1    spin polarized calculation?
   LNONCOLLINEAR =      F non collinear calculations
   LSORBIT =      F    spin-orbit coupling
   INIWAV =      1    electr: 0-lowe 1-rand  2-diag
   LASPH  =      T    aspherical Exc in radial PAW
   METAGGA=      F    non-selfconsistent MetaGGA calc.

 Electronic Relaxation 1
   ENCUT  =  300.0 eV  22.05 Ry    4.70 a.u.  16.48 16.57 16.48*2*pi/ulx,y,z
   ENINI  =  300.0     initial cutoff
   ENAUG  =  503.9 eV  augmentation charge cutoff
   NELM   =    200;   NELMIN=  2; NELMDL= -5     # of ELM steps 
   EDIFF  = 0.1E-05   stopping-criterion for ELM
   LREAL  =      T    real-space projection
   NLSPLINE    = F    spline interpolate recip. space projectors
   LCOMPAT=      F    compatible to vasp.4.4
   GGA_COMPAT  = T    GGA compatible to vasp.4.4-vasp.4.6
   LMAXPAW     = -100 max onsite density
   LMAXMIX     =    2 max onsite mixed and CHGCAR
   VOSKOWN=      0    Vosko Wilk Nusair interpolation
   ROPT   =   -0.00025  -0.00025  -0.00025
 Ionic relaxation
   EDIFFG = -.1E-01   stopping-criterion for IOM
   NSW    =      0    number of steps for IOM
   NBLOCK =      1;   KBLOCK =      1    inner block; outer block 
   IBRION =     -1    ionic relax: 0-MD 1-quasi-New 2-CG
   NFREE  =      1    steps in history (QN), initial steepest desc. (CG)
   ISIF   =      2    stress and relaxation
   IWAVPR =     10    prediction:  0-non 1-charg 2-wave 3-comb
   ISYM   =      0    0-nonsym 1-usesym 2-fastsym
   LCORR  =      T    Harris-Foulkes like correction to forces

   POTIM  = 0.5000    time-step for ionic-motion
   TEIN   =    0.0    initial temperature
   TEBEG  =    0.0;   TEEND  =   0.0 temperature during run
   SMASS  =  -3.00    Nose mass-parameter (am)
   estimated Nose-frequenzy (Omega)   =  0.10E-29 period in steps =****** mass=  -0.311E-26a.u.
   SCALEE = 1.0000    scale energy and forces
   NPACO  =    256;   APACO  = 16.0  distance and # of slots for P.C.
   PSTRESS=    0.0 pullay stress

  Mass of Ions in am
   POMASS = 132.90207.20 79.90
  Ionic Valenz
   ZVAL   =   9.00 14.00  7.00
  Atomic Wigner-Seitz radii
   RWIGS  =  -1.00 -1.00 -1.00
  virtual crystal weights 
   VCA    =   1.00  1.00  1.00
   NELECT =     344.0000    total number of electrons
   NUPDOWN=       0.0000    fix difference up-down

 DOS related values:
   EMIN   =  10.00;   EMAX   =-10.00  energy-range for DOS
   EFERMI =   0.00
   ISMEAR =     0;   SIGMA  =   0.01  broadening in eV -4-tet -1-fermi 0-gaus

 Electronic relaxation 2 (details)
   IALGO  =     38    algorithm
   LDIAG  =      T    sub-space diagonalisation (order eigenvalues)
   LSUBROT=      F    optimize rotation matrix (better conditioning)
   TURBO    =      0    0=normal 1=particle mesh
   IRESTART =      0    0=no restart 2=restart with 2 vectors
   NREBOOT  =      0    no. of reboots
   NMIN     =      0    reboot dimension
   EREF     =   0.00    reference energy to select bands
   IMIX   =      4    mixing-type and parameters
     AMIX     =   0.40;   BMIX     =  1.00
     AMIX_MAG =   1.60;   BMIX_MAG =  1.00
     AMIN     =   0.10
     WC   =   100.;   INIMIX=   1;  MIXPRE=   1;  MAXMIX= -45

 Intra band minimization:
   WEIMIN = 0.0000     energy-eigenvalue tresh-hold
   EBREAK =  0.12E-08  absolut break condition
   DEPER  =   0.30     relativ break condition  

   TIME   =   0.40     timestep for ELM

  volume/ion in A,a.u.               =      40.90       276.00
  Fermi-wavevector in a.u.,A,eV,Ry     =   0.981747  1.855232 13.113654  0.963826
  Thomas-Fermi vector in A             =   2.112777

 Write flags
   LWAVE        =      F    write WAVECAR
   LDOWNSAMPLE  =      F    k-point downsampling of WAVECAR
   LCHARG       =      F    write CHGCAR
   LVTOT        =      F    write LOCPOT, total local potential
   LVHAR        =      T    write LOCPOT, Hartree potential only
   LELF         =      F    write electronic localiz. function (ELF)
   LORBIT       =     10    0 simple, 1 ext, 2 COOP (PROOUT), +10 PAW based schemes


 Dipole corrections
   LMONO  =      F    monopole corrections only (constant potential shift)
   LDIPOL =      F    correct potential (dipole corrections)
   IDIPOL =      0    1-x, 2-y, 3-z, 4-all directions 
   EPSILON=  1.0000000 bulk dielectric constant

 Exchange correlation treatment:
   GGA     =    --    GGA type
   LEXCH   =     8    internal setting for exchange type
   VOSKOWN=      0    Vosko Wilk Nusair interpolation
   LHFCALC =     F    Hartree Fock is set to
   LHFONE  =     F    Hartree Fock one center treatment
   AEXX    =    0.0000 exact exchange contribution

 Linear response parameters
   LEPSILON=     F    determine dielectric tensor
   LRPA    =     F    only Hartree local field effects (RPA)
   LNABLA  =     F    use nabla operator in PAW spheres
   LVEL    =     F    velocity operator in full k-point grid
   LINTERFAST=   F  fast interpolation
   KINTER  =     0    interpolate to denser k-point grid
   CSHIFT  =0.1000    complex shift for real part using Kramers Kronig
   OMEGAMAX=  -1.0    maximum frequency
   DEG_THRESHOLD= 0.2000000E-02 threshold for treating states as degnerate
   RTIME   =   -0.100 relaxation time in fs
  (WPLASMAI=    0.000 imaginary part of plasma frequency in eV, 0.658/RTIME)
   DFIELD  = 0.0000000 0.0000000 0.0000000 field for delta impulse in time

 Orbital magnetization related:
   ORBITALMAG=     F  switch on orbital magnetization
   LCHIMAG   =     F  perturbation theory with respect to B field
   DQ        =  0.001000  dq finite difference perturbation B field
   LLRAUG    =     F  two centre corrections for induced B field



--------------------------------------------------------------------------------------------------------


 Static calculation
 charge density and potential will be updated during run
 non-spin polarized calculation
 Variant of blocked Davidson
 Davidson routine will perform the subspace rotation
 perform sub-space diagonalisation
    after iterative eigenvector-optimisation
 modified Broyden-mixing scheme, WC =      100.0
 initial mixing is a Kerker type mixing with AMIX =  0.4000 and BMIX =      1.0000
 Hartree-type preconditioning will be used
 using additional bands           36
 real space projection scheme for non local part
 use partial core corrections
 calculate Harris-corrections to forces   (improved forces if not selfconsistent)
 use gradient corrections 
 use of overlap-Matrix (Vanderbilt PP)
 Gauss-broadening in eV      SIGMA  =   0.01


--------------------------------------------------------------------------------------------------------


  energy-cutoff  :      300.00
  volume of cell :     1595.09
      direct lattice vectors                 reciprocal lattice vectors
     8.456489000  0.000000000  8.040301000     0.059126193 -0.000000000  0.062186727
     0.000000000 11.729847000  0.000000000     0.000000000  0.085252604 -0.000000000
    -8.456489000  0.000000000  8.040301000    -0.059126193  0.000000000  0.062186727

  length of vectors
    11.668703715 11.729847000 11.668703715     0.085808482  0.085252604  0.085808482



 k-points in units of 2pi/SCALE and weight: 1x1x1                                   
  -0.00000000  0.00000000  0.00000000       0.125
   0.02956310  0.00000000  0.03109336       0.125
  -0.00000000  0.04262630  0.00000000       0.125
   0.02956310  0.04262630  0.03109336       0.125
  -0.02956310  0.00000000  0.03109336       0.125
   0.00000000  0.00000000  0.06218673       0.125
  -0.02956310  0.04262630  0.03109336       0.125
   0.00000000  0.04262630  0.06218673       0.125

 k-points in reciprocal lattice and weights: 1x1x1                                   
   0.00000000  0.00000000  0.00000000       0.125
   0.50000000  0.00000000  0.00000000       0.125
   0.00000000  0.50000000  0.00000000       0.125
   0.50000000  0.50000000  0.00000000       0.125
   0.00000000  0.00000000  0.50000000       0.125
   0.50000000  0.00000000  0.50000000       0.125
   0.00000000  0.50000000  0.50000000       0.125
   0.50000000  0.50000000  0.50000000       0.125

 position of ions in fractional coordinates (direct lattice) 
   0.27170400  0.24963900  0.18174900
   0.77127500  0.25515600  0.75994500
   0.70647900  0.74895200  0.24882100
   0.21294200  0.74563500  0.78484200
   0.26819500  0.25739200  0.75126900
   0.80549000  0.24974300  0.21536800
   0.72237400  0.74953200  0.77708300
   0.24570200  0.74098300  0.28938200
   0.00624100  0.99465900  0.99946600
   0.49124400  0.04046400  0.49363300
   0.50509800  0.00201300  0.99438100
   0.03149200  0.99418000  0.50370500
   0.50559800  0.49965000  0.99517800
   0.00144100  0.49539400  0.50082200
   0.00523100  0.50384000  0.00099700
   0.49160000  0.48272100  0.49553100
   0.48399100  0.75116100  0.97302500
   0.96630500  0.75409300  0.45526800
   0.00130000  0.24942600  0.97382700
   0.37395800  0.24448100  0.47233700
   0.03631600  0.74957500  0.04453000
   0.54958300  0.72979900  0.50749400
   0.53924400  0.25028200  0.02368500
   0.01153500  0.24755000  0.55118800
   0.25302700  0.48222600  0.95508500
   0.46113300  0.51827400  0.24386900
   0.94907200  0.53612700  0.74758400
   0.54935200  0.03480700  0.74430800
   0.05571400  0.03639200  0.25897200
   0.75849500  0.97779300  0.04527000
   0.27122700  0.93989200  0.54768200
   0.25362600  0.02077700  0.94655900
   0.46160900  0.97695400  0.24759000
   0.95587400  0.95887100  0.74967300
   0.75811300  0.52197400  0.04572000
   0.23609000  0.53762800  0.55367200
   0.54188200  0.46694300  0.74705400
   0.05370700  0.46087400  0.25448500
   0.68896700  0.29630300  0.46866200

 position of ions in cartesian coordinates  (Angst):
   0.76070347  2.92822728  3.64589861
   0.09581202  2.99294084 12.31146970
   3.87017984  8.78509237  7.68089955
  -4.83626606  8.74618447  8.02248369
  -4.08510997  3.01916878  8.19679742
   4.99036020  2.92944718  8.20800560
  -0.46264606  8.79189568 12.05608562
  -0.36937944  8.69161722  4.30223642
  -8.39919629 11.66719789  8.08618700
  -0.02020255  0.47463653  7.91870753
  -4.13761631  0.02361218 12.05626250
  -3.99326404 11.66157929  4.30314497
  -4.14012788  5.86081805 12.06669077
  -4.22300993  5.81089582  4.03834570
   0.03580477  5.90996611  0.05007499
  -0.03324246  5.66224347  7.93683037
  -4.13551064  8.81100360 11.71484720
   4.32157877  8.84539551 11.42987481
  -8.22416388  2.92572882  7.84031459
  -0.83194093  2.86772472  6.80446653
  -0.06946160  8.79240007  0.65002617
   0.35592517  8.56043061  8.49921726
   4.35981901  2.93576957  4.52611860
  -4.56356966  2.90372362  4.52446230
  -5.93694575  5.65643720  9.71358412
   1.83729063  6.07927472  5.66842829
   1.70388106  6.28868768 13.64162493
  -1.64864327  0.40828078 10.40141579
  -1.71884904  0.42687259  2.53017016
   6.03137937 11.46936229  6.46251253
  -2.33783867 11.02478936  6.58427485
  -5.85978029  0.24371103  9.64984866
   1.80984932 11.45952095  5.70217343
   1.74373649 11.24741012 13.71311125
   6.02434357  6.12267516  6.46305927
  -2.68562869  6.30629418  6.34992420
  -1.73503476  5.47716995 10.36343341
  -1.69787695  5.40598151  2.47795645
   1.86300681  3.47558886  9.30768561



--------------------------------------------------------------------------------------------------------


 k-point  1 :   0.0000 0.0000 0.0000  plane waves:   18809
 k-point  2 :   0.5000 0.0000 0.0000  plane waves:   18808
 k-point  3 :   0.0000 0.5000 0.0000  plane waves:   18794
 k-point  4 :   0.5000 0.5000 0.0000  plane waves:   18804
 k-point  5 :   0.0000 0.0000 0.5000  plane waves:   18808
 k-point  6 :   0.5000 0.0000 0.5000  plane waves:   18790
 k-point  7 :   0.0000 0.5000 0.5000  plane waves:   18804
 k-point  8 :   0.5000 0.5000 0.5000  plane waves:   18800

 maximum and minimum number of plane-waves per node :      2389     2304

 maximum number of plane-waves:     18809
 maximum index in each direction: 
   IXMAX=   16   IYMAX=   16   IZMAX=   16
   IXMIN=  -16   IYMIN=  -17   IZMIN=  -16


 real space projection operators:
  total allocation   :      16726.10 KBytes
  max/ min on nodes  :       2194.10       1811.77


 parallel 3D FFT for wavefunctions:
    minimum data exchange during FFTs selected (reduces bandwidth)
 parallel 3D FFT for charge:
    minimum data exchange during FFTs selected (reduces bandwidth)


 total amount of memory used by VASP MPI-rank0    60653. kBytes
=======================================================================

   base      :      30000. kBytes
   nonlr-proj:       6488. kBytes
   fftplans  :       8423. kBytes
   grid      :       7465. kBytes
   one-center:         77. kBytes
   wavefun   :       8200. kBytes

     INWAV:  cpu time    0.0000: real time    0.0000
 Broyden mixing: mesh for mixing (old mesh)
   NGX = 33   NGY = 33   NGZ = 33
  (NGX  =140   NGY  =140   NGZ  =140)
  gives a total of  35937 points

 initial charge density was supplied:
 charge density of overlapping atoms calculated
 number of electron     345.0000000 magnetization 
 keeping initial charge density in first step


--------------------------------------------------------------------------------------------------------


 Maximum index for non-local projection operator          728
 Maximum index for augmentation-charges         2935 (set IRDMAX)


--------------------------------------------------------------------------------------------------------


 First call to EWALD:  gamma=   0.152
 Maximum number of real-space cells 3x 3x 3
 Maximum number of reciprocal cells 3x 3x 3

    FEWALD:  cpu time    0.0042: real time    0.0042


--------------------------------------- Iteration      1(   1)  ---------------------------------------


    POTLOK:  cpu time    0.2616: real time    0.2773
    SETDIJ:  cpu time    1.1952: real time    1.1953
     EDDAV:  cpu time   16.4721: real time   16.4785
       DOS:  cpu time    0.0008: real time    0.0008
    --------------------------------------------
      LOOP:  cpu time   17.9298: real time   17.9520

 eigenvalue-minimisations  :  3472
 total energy-change (2. order) : 0.1332536E+04  (-0.1105334E+05)
 number of electron     345.0000000 magnetization 
 augmentation part      345.0000000 magnetization 

 Free energy of the ion-electron system (eV)
  ---------------------------------------------------
  alpha Z        PSCENC =       872.70583573
  Ewald energy   TEWEN  =    -17885.68985800
  -Hartree energ DENC   =     -7471.06435188
  -exchange      EXHF   =         0.00000000
  -V(xc)+E(xc)   XCENC  =       907.93373531
  PAW double counting   =     21345.28103884   -22405.85761495
  entropy T*S    EENTRO =        -0.00088569
  eigenvalues    EBANDS =      -242.89076225
  atomic energy  EATOM  =     26212.11861568
  Solvation  Ediel_sol  =         0.00000000
  ---------------------------------------------------
  free energy    TOTEN  =      1332.53575278 eV

  energy without entropy =     1332.53663847  energy(sigma->0) =     1332.53619563


--------------------------------------------------------------------------------------------------------




--------------------------------------- Iteration      1(   2)  ---------------------------------------


     EDDAV:  cpu time   18.2750: real time   18.3310
       DOS:  cpu time    0.0004: real time    0.0004
    --------------------------------------------
      LOOP:  cpu time   18.2754: real time   18.3314

 eigenvalue-minimisations  :  4088
 total energy-change (2. order) :-0.2445033E+04  (-0.2358954E+04)
 number of electron     345.0000000 magnetization 
 augmentation part      345.0000000 magnetization 

 Free energy of the ion-electron system (eV)
  ---------------------------------------------------
  alpha Z        PSCENC =       872.70583573
  Ewald energy   TEWEN  =    -17885.68985800
  -Hartree energ DENC   =     -7471.06435188
  -exchange      EXHF   =         0.00000000
  -V(xc)+E(xc)   XCENC  =       907.93373531
  PAW double counting   =     21345.28103884   -22405.85761495
  entropy T*S    EENTRO =        -0.00000000
  eigenvalues    EBANDS =     -2687.92440754
  atomic energy  EATOM  =     26212.11861568
  Solvation  Ediel_sol  =         0.00000000
  ---------------------------------------------------
  free energy    TOTEN  =     -1112.49700681 eV

  energy without entropy =    -1112.49700681  energy(sigma->0) =    -1112.49700681


--------------------------------------------------------------------------------------------------------




--------------------------------------- Iteration      1(   3)  ---------------------------------------


     EDDAV:  cpu time   19.2304: real time   19.2449
       DOS:  cpu time    0.0004: real time    0.0004
    --------------------------------------------
      LOOP:  cpu time   19.2308: real time   19.2453

 eigenvalue-minimisations  :  4432
 total energy-change (2. order) :-0.3623196E+03  (-0.3603672E+03)
 number of electron     345.0000000 magnetization 
 augmentation part      345.0000000 magnetization 

 Free energy of the ion-electron system (eV)
  ---------------------------------------------------
  alpha Z        PSCENC =       872.70583573
  Ewald energy   TEWEN  =    -17885.68985800
  -Hartree energ DENC   =     -7471.06435188
  -exchange      EXHF   =         0.00000000
  -V(xc)+E(xc)   XCENC  =       907.93373531
  PAW double counting   =     21345.28103884   -22405.85761495
  entropy T*S    EENTRO =        -0.00000000
  eigenvalues    EBANDS =     -3050.24401520
  atomic energy  EATOM  =     26212.11861568
  Solvation  Ediel_sol  =         0.00000000
  ---------------------------------------------------
  free energy    TOTEN  =     -1474.81661448 eV

  energy without entropy =    -1474.81661448  energy(sigma->0) =    -1474.81661448


--------------------------------------------------------------------------------------------------------




--------------------------------------- Iteration      1(   4)  ---------------------------------------


     EDDAV:  cpu time   17.8250: real time   17.8308
       DOS:  cpu time    0.0004: real time    0.0004
    --------------------------------------------
      LOOP:  cpu time   17.8254: real time   17.8312

 eigenvalue-minimisations  :  3928
 total energy-change (2. order) :-0.1211305E+02  (-0.1207883E+02)
 number of electron     345.0000000 magnetization 
 augmentation part      345.0000000 magnetization 

 Free energy of the ion-electron system (eV)
  ---------------------------------------------------
  alpha Z        PSCENC =       872.70583573
  Ewald energy   TEWEN  =    -17885.68985800
  -Hartree energ DENC   =     -7471.06435188
  -exchange      EXHF   =         0.00000000
  -V(xc)+E(xc)   XCENC  =       907.93373531
  PAW double counting   =     21345.28103884   -22405.85761495
  entropy T*S    EENTRO =        -0.00000000
  eigenvalues    EBANDS =     -3062.35706893
  atomic energy  EATOM  =     26212.11861568
  Solvation  Ediel_sol  =         0.00000000
  ---------------------------------------------------
  free energy    TOTEN  =     -1486.92966820 eV

  energy without entropy =    -1486.92966820  energy(sigma->0) =    -1486.92966820


--------------------------------------------------------------------------------------------------------




--------------------------------------- Iteration      1(   5)  ---------------------------------------


     EDDAV:  cpu time   19.0724: real time   19.1381
       DOS:  cpu time    0.0004: real time    0.0004
    CHARGE:  cpu time    2.7068: real time    2.7069
    MIXING:  cpu time    0.0014: real time    0.0014
    --------------------------------------------
      LOOP:  cpu time   21.7811: real time   21.8469

 eigenvalue-minimisations  :  4384
 total energy-change (2. order) :-0.5299829E+00  (-0.5297257E+00)
 number of electron     344.0000001 magnetization 
 augmentation part       -5.0369814 magnetization 

 Broyden mixing:
  rms(total) = 0.10101E+01    rms(broyden)= 0.10095E+01
  rms(prec ) = 0.14134E+01
  weight for this iteration     100.00

 Free energy of the ion-electron system (eV)
  ---------------------------------------------------
  alpha Z        PSCENC =       872.70583573
  Ewald energy   TEWEN  =    -17885.68985800
  -Hartree energ DENC   =     -7471.06435188
  -exchange      EXHF   =         0.00000000
  -V(xc)+E(xc)   XCENC  =       907.93373531
  PAW double counting   =     21345.28103884   -22405.85761495
  entropy T*S    EENTRO =        -0.00000000
  eigenvalues    EBANDS =     -3062.88705184
  atomic energy  EATOM  =     26212.11861568
  Solvation  Ediel_sol  =         0.00000000
  ---------------------------------------------------
  free energy    TOTEN  =     -1487.45965111 eV

  energy without entropy =    -1487.45965111  energy(sigma->0) =    -1487.45965111


--------------------------------------------------------------------------------------------------------




--------------------------------------- Iteration      1(   6)  ---------------------------------------


    POTLOK:  cpu time    0.2847: real time    0.3174
    SETDIJ:  cpu time    1.1998: real time    1.1998
     EDDAV:  cpu time   18.9940: real time   18.9950
       DOS:  cpu time    0.0004: real time    0.0004
    CHARGE:  cpu time    2.6844: real time    2.6846
    MIXING:  cpu time    0.0018: real time    0.0018
    --------------------------------------------
      LOOP:  cpu time   23.1652: real time   23.1990

 eigenvalue-minimisations  :  4328
 total energy-change (2. order) : 0.7800402E+02  (-0.2361884E+01)
 number of electron     344.0000001 magnetization 
 augmentation part       -3.6558551 magnetization 

 Broyden mixing:
  rms(total) = 0.72061E+00    rms(broyden)= 0.72052E+00
  rms(prec ) = 0.90965E+00
  weight for this iteration     100.00

 eigenvalues of (default mixing * dielectric matrix)
  average eigenvalue GAMMA=   1.1829
  1.1829

 Free energy of the ion-electron system (eV)
  ---------------------------------------------------
  alpha Z        PSCENC =       872.70583573
  Ewald energy   TEWEN  =    -17885.68985800
  -Hartree energ DENC   =     -7450.65867652
  -exchange      EXHF   =         0.00000000
  -V(xc)+E(xc)   XCENC  =       935.93610675
  PAW double counting   =     21613.35563834   -22671.84692340
  entropy T*S    EENTRO =        -0.00000000
  eigenvalues    EBANDS =     -3035.37637026
  atomic energy  EATOM  =     26212.11861568
  Solvation  Ediel_sol  =         0.00000000
  ---------------------------------------------------
  free energy    TOTEN  =     -1409.45563168 eV

  energy without entropy =    -1409.45563168  energy(sigma->0) =    -1409.45563168


--------------------------------------------------------------------------------------------------------




--------------------------------------- Iteration      1(   7)  ---------------------------------------


    POTLOK:  cpu time    0.3107: real time    0.3210
    SETDIJ:  cpu time    1.1981: real time    1.1981
     EDDAV:  cpu time   18.0360: real time   18.0371
       DOS:  cpu time    0.0004: real time    0.0004
    CHARGE:  cpu time    2.6891: real time    2.6892
    MIXING:  cpu time    0.0017: real time    0.0017
    --------------------------------------------
      LOOP:  cpu time   22.2360: real time   22.2475

 eigenvalue-minimisations  :  4000
 total energy-change (2. order) : 0.5287417E+00  (-0.9367149E+00)
 number of electron     344.0000001 magnetization 
 augmentation part       -3.0611662 magnetization 

 Broyden mixing:
  rms(total) = 0.37592E+00    rms(broyden)= 0.37590E+00
  rms(prec ) = 0.41992E+00
  weight for this iteration     100.00

 eigenvalues of (default mixing * dielectric matrix)
  average eigenvalue GAMMA=   1.2894
  1.2894  1.2894

 Free energy of the ion-electron system (eV)
  ---------------------------------------------------
  alpha Z        PSCENC =       872.70583573
  Ewald energy   TEWEN  =    -17885.68985800
  -Hartree energ DENC   =     -7491.84475653
  -exchange      EXHF   =         0.00000000
  -V(xc)+E(xc)   XCENC  =       940.94731230
  PAW double counting   =     22222.33321479   -23278.64617675
  entropy T*S    EENTRO =        -0.00000000
  eigenvalues    EBANDS =     -3000.85107723
  atomic energy  EATOM  =     26212.11861568
  Solvation  Ediel_sol  =         0.00000000
  ---------------------------------------------------
  free energy    TOTEN  =     -1408.92689002 eV

  energy without entropy =    -1408.92689002  energy(sigma->0) =    -1408.92689002


--------------------------------------------------------------------------------------------------------




--------------------------------------- Iteration      1(   8)  ---------------------------------------


    POTLOK:  cpu time    0.2580: real time    0.3190
    SETDIJ:  cpu time    1.1955: real time    1.1956
     EDDAV:  cpu time   17.9048: real time   17.9059
       DOS:  cpu time    0.0004: real time    0.0004
    CHARGE:  cpu time    2.6880: real time    2.6882
    MIXING:  cpu time    0.0015: real time    0.0015
    --------------------------------------------
      LOOP:  cpu time   22.0483: real time   22.1105

 eigenvalue-minimisations  :  3952
 total energy-change (2. order) :-0.1820088E+00  (-0.5064500E-01)
 number of electron     344.0000001 magnetization 
 augmentation part       -3.1598279 magnetization 

 Broyden mixing:
  rms(total) = 0.22470E+00    rms(broyden)= 0.22469E+00
  rms(prec ) = 0.25554E+00
  weight for this iteration     100.00

 eigenvalues of (default mixing * dielectric matrix)
  average eigenvalue GAMMA=   1.6926
  1.2049  1.2049  2.6680

 Free energy of the ion-electron system (eV)
  ---------------------------------------------------
  alpha Z        PSCENC =       872.70583573
  Ewald energy   TEWEN  =    -17885.68985800
  -Hartree energ DENC   =     -7496.82608323
  -exchange      EXHF   =         0.00000000
  -V(xc)+E(xc)   XCENC  =       941.52043743
  PAW double counting   =     22440.96731979   -23497.60332804
  entropy T*S    EENTRO =        -0.00000000
  eigenvalues    EBANDS =     -2996.30183822
  atomic energy  EATOM  =     26212.11861568
  Solvation  Ediel_sol  =         0.00000000
  ---------------------------------------------------
  free energy    TOTEN  =     -1409.10889885 eV

  energy without entropy =    -1409.10889885  energy(sigma->0) =    -1409.10889885


--------------------------------------------------------------------------------------------------------




--------------------------------------- Iteration      1(   9)  ---------------------------------------


    POTLOK:  cpu time    0.2864: real time    0.3170
    SETDIJ:  cpu time    1.1970: real time    1.1971
     EDDAV:  cpu time   16.9951: real time   16.9958
       DOS:  cpu time    0.0004: real time    0.0004
    CHARGE:  cpu time    2.6872: real time    2.6874
    MIXING:  cpu time    0.0015: real time    0.0015
    --------------------------------------------
      LOOP:  cpu time   21.1677: real time   21.1992

 eigenvalue-minimisations  :  3640
 total energy-change (2. order) :-0.6622200E-01  (-0.2034844E-01)
 number of electron     344.0000001 magnetization 
 augmentation part       -3.1954491 magnetization 

 Broyden mixing:
  rms(total) = 0.49101E-01    rms(broyden)= 0.49097E-01
  rms(prec ) = 0.58081E-01
  weight for this iteration     100.00

 eigenvalues of (default mixing * dielectric matrix)
  average eigenvalue GAMMA=   1.4610
  2.5507  1.2336  1.2336  0.8260

 Free energy of the ion-electron system (eV)
  ---------------------------------------------------
  alpha Z        PSCENC =       872.70583573
  Ewald energy   TEWEN  =    -17885.68985800
  -Hartree energ DENC   =     -7504.08715590
  -exchange      EXHF   =         0.00000000
  -V(xc)+E(xc)   XCENC  =       943.49142795
  PAW double counting   =     22778.33729715   -23835.80126041
  entropy T*S    EENTRO =        -0.00000000
  eigenvalues    EBANDS =     -2990.25002306
  atomic energy  EATOM  =     26212.11861568
  Solvation  Ediel_sol  =         0.00000000
  ---------------------------------------------------
  free energy    TOTEN  =     -1409.17512085 eV

  energy without entropy =    -1409.17512085  energy(sigma->0) =    -1409.17512085


--------------------------------------------------------------------------------------------------------




--------------------------------------- Iteration      1(  10)  ---------------------------------------


    POTLOK:  cpu time    0.2491: real time    0.3218
    SETDIJ:  cpu time    1.1962: real time    1.1963
     EDDAV:  cpu time   19.6941: real time   19.6952
       DOS:  cpu time    0.0005: real time    0.0004
    CHARGE:  cpu time    2.6866: real time    2.6867
    MIXING:  cpu time    0.0016: real time    0.0016
    --------------------------------------------
      LOOP:  cpu time   23.8280: real time   23.9020

 eigenvalue-minimisations  :  4576
 total energy-change (2. order) :-0.3947424E-02  (-0.2509349E-02)
 number of electron     344.0000001 magnetization 
 augmentation part       -3.1838678 magnetization 

 Broyden mixing:
  rms(total) = 0.33562E-01    rms(broyden)= 0.33560E-01
  rms(prec ) = 0.42045E-01
  weight for this iteration     100.00

 eigenvalues of (default mixing * dielectric matrix)
  average eigenvalue GAMMA=   1.3105
  2.4409  1.2985  1.2985  0.7574  0.7574

 Free energy of the ion-electron system (eV)
  ---------------------------------------------------
  alpha Z        PSCENC =       872.70583573
  Ewald energy   TEWEN  =    -17885.68985800
  -Hartree energ DENC   =     -7502.34186038
  -exchange      EXHF   =         0.00000000
  -V(xc)+E(xc)   XCENC  =       943.33216339
  PAW double counting   =     22748.88386899   -23806.41702723
  entropy T*S    EENTRO =        -0.00000000
  eigenvalues    EBANDS =     -2991.77080646
  atomic energy  EATOM  =     26212.11861568
  Solvation  Ediel_sol  =         0.00000000
  ---------------------------------------------------
  free energy    TOTEN  =     -1409.17906828 eV

  energy without entropy =    -1409.17906828  energy(sigma->0) =    -1409.17906828


--------------------------------------------------------------------------------------------------------




--------------------------------------- Iteration      1(  11)  ---------------------------------------


    POTLOK:  cpu time    0.2775: real time    0.3159
    SETDIJ:  cpu time    1.2028: real time    1.2028
     EDDAV:  cpu time   17.2346: real time   17.2357
       DOS:  cpu time    0.0004: real time    0.0004
    CHARGE:  cpu time    2.6886: real time    2.6887
    MIXING:  cpu time    0.0016: real time    0.0016
    --------------------------------------------
      LOOP:  cpu time   21.4055: real time   21.4452

 eigenvalue-minimisations  :  3728
 total energy-change (2. order) :-0.2009517E-02  (-0.3160249E-03)
 number of electron     344.0000001 magnetization 
 augmentation part       -3.1835320 magnetization 

 Broyden mixing:
  rms(total) = 0.15673E-01    rms(broyden)= 0.15673E-01
  rms(prec ) = 0.23518E-01
  weight for this iteration     100.00

 eigenvalues of (default mixing * dielectric matrix)
  average eigenvalue GAMMA=   1.5919
  2.7309  2.7309  1.1918  1.1918  0.8529  0.8529

 Free energy of the ion-electron system (eV)
  ---------------------------------------------------
  alpha Z        PSCENC =       872.70583573
  Ewald energy   TEWEN  =    -17885.68985800
  -Hartree energ DENC   =     -7500.89710230
  -exchange      EXHF   =         0.00000000
  -V(xc)+E(xc)   XCENC  =       943.25495889
  PAW double counting   =     22732.91758128   -23790.65298736
  entropy T*S    EENTRO =        -0.00000000
  eigenvalues    EBANDS =     -2992.93812173
  atomic energy  EATOM  =     26212.11861568
  Solvation  Ediel_sol  =         0.00000000
  ---------------------------------------------------
  free energy    TOTEN  =     -1409.18107779 eV

  energy without entropy =    -1409.18107779  energy(sigma->0) =    -1409.18107779


--------------------------------------------------------------------------------------------------------




--------------------------------------- Iteration      1(  12)  ---------------------------------------


    POTLOK:  cpu time    0.2564: real time    0.2969
    SETDIJ:  cpu time    1.2026: real time    1.2027
     EDDAV:  cpu time   16.8844: real time   16.8852
       DOS:  cpu time    0.0004: real time    0.0004
    CHARGE:  cpu time    2.6878: real time    2.6879
    MIXING:  cpu time    0.0017: real time    0.0017
    --------------------------------------------
      LOOP:  cpu time   21.0332: real time   21.0747

 eigenvalue-minimisations  :  3608
 total energy-change (2. order) :-0.3289207E-02  (-0.5598227E-03)
 number of electron     344.0000001 magnetization 
 augmentation part       -3.1867636 magnetization 

 Broyden mixing:
  rms(total) = 0.10066E-01    rms(broyden)= 0.10065E-01
  rms(prec ) = 0.13158E-01
  weight for this iteration     100.00

 eigenvalues of (default mixing * dielectric matrix)
  average eigenvalue GAMMA=   1.5986
  2.8325  2.8325  1.3251  1.3251  0.9005  0.9873  0.9873

 Free energy of the ion-electron system (eV)
  ---------------------------------------------------
  alpha Z        PSCENC =       872.70583573
  Ewald energy   TEWEN  =    -17885.68985800
  -Hartree energ DENC   =     -7499.93804574
  -exchange      EXHF   =         0.00000000
  -V(xc)+E(xc)   XCENC  =       943.26432097
  PAW double counting   =     22725.28965333   -23783.32965078
  entropy T*S    EENTRO =        -0.00000000
  eigenvalues    EBANDS =     -2993.60523820
  atomic energy  EATOM  =     26212.11861568
  Solvation  Ediel_sol  =         0.00000000
  ---------------------------------------------------
  free energy    TOTEN  =     -1409.18436700 eV

  energy without entropy =    -1409.18436700  energy(sigma->0) =    -1409.18436700


--------------------------------------------------------------------------------------------------------




--------------------------------------- Iteration      1(  13)  ---------------------------------------


    POTLOK:  cpu time    0.3077: real time    0.3229
    SETDIJ:  cpu time    1.2014: real time    1.2015
     EDDAV:  cpu time   18.9810: real time   18.9819
       DOS:  cpu time    0.0005: real time    0.0005
    CHARGE:  cpu time    2.6760: real time    2.6761
    MIXING:  cpu time    0.0020: real time    0.0020
    --------------------------------------------
      LOOP:  cpu time   23.1686: real time   23.1849

 eigenvalue-minimisations  :  4336
 total energy-change (2. order) : 0.2263893E-03  (-0.1319014E-03)
 number of electron     344.0000001 magnetization 
 augmentation part       -3.1870875 magnetization 

 Broyden mixing:
  rms(total) = 0.48473E-02    rms(broyden)= 0.48467E-02
  rms(prec ) = 0.58636E-02
  weight for this iteration     100.00

 eigenvalues of (default mixing * dielectric matrix)
  average eigenvalue GAMMA=   1.5570
  3.1896  2.4715  1.5968  1.1177  1.1177  1.1856  0.9683  0.8090

 Free energy of the ion-electron system (eV)
  ---------------------------------------------------
  alpha Z        PSCENC =       872.70583573
  Ewald energy   TEWEN  =    -17885.68985800
  -Hartree energ DENC   =     -7500.95054987
  -exchange      EXHF   =         0.00000000
  -V(xc)+E(xc)   XCENC  =       943.33165851
  PAW double counting   =     22724.52318371   -23782.51589644
  entropy T*S    EENTRO =        -0.00000000
  eigenvalues    EBANDS =     -2992.70712993
  atomic energy  EATOM  =     26212.11861568
  Solvation  Ediel_sol  =         0.00000000
  ---------------------------------------------------
  free energy    TOTEN  =     -1409.18414061 eV

  energy without entropy =    -1409.18414061  energy(sigma->0) =    -1409.18414061


--------------------------------------------------------------------------------------------------------




--------------------------------------- Iteration      1(  14)  ---------------------------------------


    POTLOK:  cpu time    0.2526: real time    0.3017
    SETDIJ:  cpu time    1.2009: real time    1.2010
     EDDAV:  cpu time   17.8334: real time   17.8344
       DOS:  cpu time    0.0005: real time    0.0005
    CHARGE:  cpu time    2.6850: real time    2.6852
    MIXING:  cpu time    0.0017: real time    0.0017
    --------------------------------------------
      LOOP:  cpu time   21.9741: real time   22.0244

 eigenvalue-minimisations  :  3936
 total energy-change (2. order) : 0.3623354E-04  (-0.3972688E-04)
 number of electron     344.0000001 magnetization 
 augmentation part       -3.1862216 magnetization 

 Broyden mixing:
  rms(total) = 0.23823E-02    rms(broyden)= 0.23812E-02
  rms(prec ) = 0.32415E-02
  weight for this iteration     100.00

 eigenvalues of (default mixing * dielectric matrix)
  average eigenvalue GAMMA=   1.5519
  3.1784  2.2193  2.2193  1.1331  1.1331  1.1432  1.1432  0.8988  0.8988

 Free energy of the ion-electron system (eV)
  ---------------------------------------------------
  alpha Z        PSCENC =       872.70583573
  Ewald energy   TEWEN  =    -17885.68985800
  -Hartree energ DENC   =     -7501.25052449
  -exchange      EXHF   =         0.00000000
  -V(xc)+E(xc)   XCENC  =       943.35106716
  PAW double counting   =     22726.22248480   -23784.19221463
  entropy T*S    EENTRO =        -0.00000000
  eigenvalues    EBANDS =     -2992.44951063
  atomic energy  EATOM  =     26212.11861568
  Solvation  Ediel_sol  =         0.00000000
  ---------------------------------------------------
  free energy    TOTEN  =     -1409.18410438 eV

  energy without entropy =    -1409.18410438  energy(sigma->0) =    -1409.18410438


--------------------------------------------------------------------------------------------------------




--------------------------------------- Iteration      1(  15)  ---------------------------------------


    POTLOK:  cpu time    0.2926: real time    0.3179
    SETDIJ:  cpu time    1.2006: real time    1.2006
     EDDAV:  cpu time   17.5858: real time   17.5866
       DOS:  cpu time    0.0005: real time    0.0004
    CHARGE:  cpu time    2.6865: real time    2.6867
    MIXING:  cpu time    0.0018: real time    0.0018
    --------------------------------------------
      LOOP:  cpu time   21.7677: real time   21.7940

 eigenvalue-minimisations  :  3848
 total energy-change (2. order) :-0.1037955E-04  (-0.3294528E-05)
 number of electron     344.0000001 magnetization 
 augmentation part       -3.1863323 magnetization 

 Broyden mixing:
  rms(total) = 0.13493E-02    rms(broyden)= 0.13480E-02
  rms(prec ) = 0.19688E-02
  weight for this iteration     100.00

 eigenvalues of (default mixing * dielectric matrix)
  average eigenvalue GAMMA=   1.6420
  3.6801  2.4808  2.4808  1.4064  1.4064  1.1449  1.1449  0.9799  0.8480  0.8480

 Free energy of the ion-electron system (eV)
  ---------------------------------------------------
  alpha Z        PSCENC =       872.70583573
  Ewald energy   TEWEN  =    -17885.68985800
  -Hartree energ DENC   =     -7501.38818995
  -exchange      EXHF   =         0.00000000
  -V(xc)+E(xc)   XCENC  =       943.35436825
  PAW double counting   =     22726.55288173   -23784.51613774
  entropy T*S    EENTRO =        -0.00000000
  eigenvalues    EBANDS =     -2992.32163046
  atomic energy  EATOM  =     26212.11861568
  Solvation  Ediel_sol  =         0.00000000
  ---------------------------------------------------
  free energy    TOTEN  =     -1409.18411476 eV

  energy without entropy =    -1409.18411476  energy(sigma->0) =    -1409.18411476


--------------------------------------------------------------------------------------------------------




--------------------------------------- Iteration      1(  16)  ---------------------------------------


    POTLOK:  cpu time    0.3019: real time    0.3077
    SETDIJ:  cpu time    1.2032: real time    1.2033
     EDDAV:  cpu time   17.0684: real time   17.0691
       DOS:  cpu time    0.0004: real time    0.0004
    CHARGE:  cpu time    2.6878: real time    2.6879
    MIXING:  cpu time    0.0019: real time    0.0019
    --------------------------------------------
      LOOP:  cpu time   21.2636: real time   21.2703

 eigenvalue-minimisations  :  3656
 total energy-change (2. order) :-0.6717487E-04  (-0.4633595E-05)
 number of electron     344.0000001 magnetization 
 augmentation part       -3.1859587 magnetization 

 Broyden mixing:
  rms(total) = 0.70527E-03    rms(broyden)= 0.70278E-03
  rms(prec ) = 0.84351E-03
  weight for this iteration     100.00

 eigenvalues of (default mixing * dielectric matrix)
  average eigenvalue GAMMA=   1.6797
  4.1115  2.7871  2.3315  1.9954  1.1184  1.1184  1.1370  1.1370  0.9470  0.9470
  0.8459

 Free energy of the ion-electron system (eV)
  ---------------------------------------------------
  alpha Z        PSCENC =       872.70583573
  Ewald energy   TEWEN  =    -17885.68985800
  -Hartree energ DENC   =     -7501.43926420
  -exchange      EXHF   =         0.00000000
  -V(xc)+E(xc)   XCENC  =       943.34744920
  PAW double counting   =     22725.92113535   -23783.88135704
  entropy T*S    EENTRO =        -0.00000000
  eigenvalues    EBANDS =     -2992.26673866
  atomic energy  EATOM  =     26212.11861568
  Solvation  Ediel_sol  =         0.00000000
  ---------------------------------------------------
  free energy    TOTEN  =     -1409.18418193 eV

  energy without entropy =    -1409.18418193  energy(sigma->0) =    -1409.18418193


--------------------------------------------------------------------------------------------------------




--------------------------------------- Iteration      1(  17)  ---------------------------------------


    POTLOK:  cpu time    0.2663: real time    0.3175
    SETDIJ:  cpu time    1.2026: real time    1.2027
     EDDAV:  cpu time   17.7631: real time   17.7638
       DOS:  cpu time    0.0004: real time    0.0004
    CHARGE:  cpu time    2.6813: real time    2.6814
    MIXING:  cpu time    0.0019: real time    0.0019
    --------------------------------------------
      LOOP:  cpu time   21.9156: real time   21.9677

 eigenvalue-minimisations  :  3888
 total energy-change (2. order) : 0.3050730E-05  (-0.8179010E-06)
 number of electron     344.0000001 magnetization 
 augmentation part       -3.1858910 magnetization 

 Broyden mixing:
  rms(total) = 0.41282E-03    rms(broyden)= 0.40858E-03
  rms(prec ) = 0.46020E-03
  weight for this iteration     100.00

 eigenvalues of (default mixing * dielectric matrix)
  average eigenvalue GAMMA=   1.6358
  4.2133  2.9068  2.2020  2.2020  1.1934  1.1934  1.1499  1.1499  0.9478  0.9478
  0.7614  0.7614

 Free energy of the ion-electron system (eV)
  ---------------------------------------------------
  alpha Z        PSCENC =       872.70583573
  Ewald energy   TEWEN  =    -17885.68985800
  -Hartree energ DENC   =     -7501.43638909
  -exchange      EXHF   =         0.00000000
  -V(xc)+E(xc)   XCENC  =       943.34542959
  PAW double counting   =     22726.08005806   -23784.03813870
  entropy T*S    EENTRO =        -0.00000000
  eigenvalues    EBANDS =     -2992.26973215
  atomic energy  EATOM  =     26212.11861568
  Solvation  Ediel_sol  =         0.00000000
  ---------------------------------------------------
  free energy    TOTEN  =     -1409.18417888 eV

  energy without entropy =    -1409.18417888  energy(sigma->0) =    -1409.18417888


--------------------------------------------------------------------------------------------------------




--------------------------------------- Iteration      1(  18)  ---------------------------------------


    POTLOK:  cpu time    0.2760: real time    0.3100
    SETDIJ:  cpu time    1.2043: real time    1.2043
     EDDAV:  cpu time   14.3403: real time   14.3410
       DOS:  cpu time    0.0004: real time    0.0004
    CHARGE:  cpu time    2.6855: real time    2.6856
    MIXING:  cpu time    0.0020: real time    0.0020
    --------------------------------------------
      LOOP:  cpu time   18.5085: real time   18.5434

 eigenvalue-minimisations  :  2680
 total energy-change (2. order) : 0.3709391E-05  (-0.1550025E-06)
 number of electron     344.0000001 magnetization 
 augmentation part       -3.1859511 magnetization 

 Broyden mixing:
  rms(total) = 0.20571E-03    rms(broyden)= 0.19708E-03
  rms(prec ) = 0.23277E-03
  weight for this iteration     100.00

 eigenvalues of (default mixing * dielectric matrix)
  average eigenvalue GAMMA=   1.6647
  4.6111  3.0156  2.2141  2.2141  1.3144  1.3144  1.1272  1.1272  1.0044  1.0044
  0.9402  0.9402  0.8138

 Free energy of the ion-electron system (eV)
  ---------------------------------------------------
  alpha Z        PSCENC =       872.70583573
  Ewald energy   TEWEN  =    -17885.68985800
  -Hartree energ DENC   =     -7501.43630567
  -exchange      EXHF   =         0.00000000
  -V(xc)+E(xc)   XCENC  =       943.34519374
  PAW double counting   =     22726.11975876   -23784.07678747
  entropy T*S    EENTRO =        -0.00000000
  eigenvalues    EBANDS =     -2992.27062793
  atomic energy  EATOM  =     26212.11861568
  Solvation  Ediel_sol  =         0.00000000
  ---------------------------------------------------
  free energy    TOTEN  =     -1409.18417517 eV

  energy without entropy =    -1409.18417517  energy(sigma->0) =    -1409.18417517


--------------------------------------------------------------------------------------------------------




--------------------------------------- Iteration      1(  19)  ---------------------------------------


    POTLOK:  cpu time    0.2582: real time    0.3185
    SETDIJ:  cpu time    1.2041: real time    1.2042
     EDDAV:  cpu time   13.1334: real time   13.1342
       DOS:  cpu time    0.0005: real time    0.0005
    CHARGE:  cpu time    2.6933: real time    2.6934
    MIXING:  cpu time    0.0021: real time    0.0021
    --------------------------------------------
      LOOP:  cpu time   17.2915: real time   17.3528

 eigenvalue-minimisations  :  2256
 total energy-change (2. order) : 0.6138996E-05  (-0.3075399E-07)
 number of electron     344.0000001 magnetization 
 augmentation part       -3.1859616 magnetization 

 Broyden mixing:
  rms(total) = 0.12807E-03    rms(broyden)= 0.11373E-03
  rms(prec ) = 0.13008E-03
  weight for this iteration     100.00
  WARNING: grid for Broyden might be to small

 eigenvalues of (default mixing * dielectric matrix)
  average eigenvalue GAMMA=   1.6819
  4.7248  3.0504  2.2942  2.2942  1.8355  1.2101  1.2101  1.1541  1.1541  1.0291
  0.9655  0.9655  0.8294  0.8294

 Free energy of the ion-electron system (eV)
  ---------------------------------------------------
  alpha Z        PSCENC =       872.70583573
  Ewald energy   TEWEN  =    -17885.68985800
  -Hartree energ DENC   =     -7501.44824477
  -exchange      EXHF   =         0.00000000
  -V(xc)+E(xc)   XCENC  =       943.34574799
  PAW double counting   =     22726.18614392   -23784.14242639
  entropy T*S    EENTRO =        -0.00000000
  eigenvalues    EBANDS =     -2992.25998319
  atomic energy  EATOM  =     26212.11861568
  Solvation  Ediel_sol  =         0.00000000
  ---------------------------------------------------
  free energy    TOTEN  =     -1409.18416903 eV

  energy without entropy =    -1409.18416903  energy(sigma->0) =    -1409.18416903


--------------------------------------------------------------------------------------------------------




--------------------------------------- Iteration      1(  20)  ---------------------------------------


    POTLOK:  cpu time    0.3062: real time    0.3097
    SETDIJ:  cpu time    1.2054: real time    1.2054
     EDDAV:  cpu time   12.7480: real time   12.7485
       DOS:  cpu time    0.0004: real time    0.0004
    CHARGE:  cpu time    2.6810: real time    2.6811
    MIXING:  cpu time    0.0023: real time    0.0024
    --------------------------------------------
      LOOP:  cpu time   16.9433: real time   16.9475

 eigenvalue-minimisations  :  2120
 total energy-change (2. order) : 0.2283197E-05  (-0.1791073E-07)
 number of electron     344.0000001 magnetization 
 augmentation part       -3.1859617 magnetization 

 Broyden mixing:
  rms(total) = 0.95652E-04    rms(broyden)= 0.75381E-04
  rms(prec ) = 0.85526E-04
  weight for this iteration     100.00
  WARNING: grid for Broyden might be to small

 eigenvalues of (default mixing * dielectric matrix)
  average eigenvalue GAMMA=   1.6867
  4.8455  3.1620  2.4367  2.4367  1.7159  1.2974  1.2974  1.1385  1.1385  1.1624
  1.0386  1.0386  0.8872  0.8872  0.8176

 Free energy of the ion-electron system (eV)
  ---------------------------------------------------
  alpha Z        PSCENC =       872.70583573
  Ewald energy   TEWEN  =    -17885.68985800
  -Hartree energ DENC   =     -7501.45205499
  -exchange      EXHF   =         0.00000000
  -V(xc)+E(xc)   XCENC  =       943.34594627
  PAW double counting   =     22726.19028073   -23784.14629789
  entropy T*S    EENTRO =        -0.00000000
  eigenvalues    EBANDS =     -2992.25663427
  atomic energy  EATOM  =     26212.11861568
  Solvation  Ediel_sol  =         0.00000000
  ---------------------------------------------------
  free energy    TOTEN  =     -1409.18416675 eV

  energy without entropy =    -1409.18416675  energy(sigma->0) =    -1409.18416675


--------------------------------------------------------------------------------------------------------




--------------------------------------- Iteration      1(  21)  ---------------------------------------


    POTLOK:  cpu time    0.3148: real time    0.3210
    SETDIJ:  cpu time    1.1979: real time    1.1979
     EDDAV:  cpu time   12.4043: real time   12.4049
       DOS:  cpu time    0.0004: real time    0.0004
    --------------------------------------------
      LOOP:  cpu time   13.9173: real time   13.9242

 eigenvalue-minimisations  :  2000
 total energy-change (2. order) :-0.2521660E-06  (-0.5915677E-08)
 number of electron     344.0000001 magnetization 
 augmentation part       -3.1859617 magnetization 

 Free energy of the ion-electron system (eV)
  ---------------------------------------------------
  alpha Z        PSCENC =       872.70583573
  Ewald energy   TEWEN  =    -17885.68985800
  -Hartree energ DENC   =     -7501.45163008
  -exchange      EXHF   =         0.00000000
  -V(xc)+E(xc)   XCENC  =       943.34592712
  PAW double counting   =     22726.20132729   -23784.15743036
  entropy T*S    EENTRO =        -0.00000000
  eigenvalues    EBANDS =     -2992.25695438
  atomic energy  EATOM  =     26212.11861568
  Solvation  Ediel_sol  =         0.00000000
  ---------------------------------------------------
  free energy    TOTEN  =     -1409.18416700 eV

  energy without entropy =    -1409.18416700  energy(sigma->0) =    -1409.18416700


--------------------------------------------------------------------------------------------------------




 average (electrostatic) potential at core
  the test charge radii are     1.1312  1.1541  1.0178
  (the norm of the test charge is              1.0000)
       1 -55.0827       2 -55.0068       3 -55.3513       4 -55.2381       5 -55.2401
       6 -55.1302       7 -55.2131       8 -55.2639       9-101.6888      10-102.0150
      11-101.6563      12-102.0157      13-101.5995      14-101.9021      15-101.6616
      16-101.7604      17 -69.0540      18 -69.0398      19 -69.0447      20 -69.3026
      21 -69.0904      22 -68.6040      23 -69.0390      24 -68.9627      25 -69.0833
      26 -68.9888      27 -69.0180      28 -69.0474      29 -69.0610      30 -69.0720
      31 -69.6495      32 -69.0677      33 -69.0560      34 -69.0408      35 -69.0782
      36 -69.3384      37 -68.9884      38 -69.0003      39 -68.3514



 E-fermi :   0.4061     XC(G=0):  -7.9578     alpha+bet : -6.9586


 k-point     1 :       0.0000    0.0000    0.0000
  band No.  band energies     occupation 
      1     -20.8817      2.00000
      2     -20.7866      2.00000
      3     -20.7773      2.00000
      4     -20.7739      2.00000
      5     -20.7416      2.00000
      6     -20.6791      2.00000
      7     -20.6278      2.00000
      8     -20.5503      2.00000
      9     -16.8216      2.00000
     10     -16.7692      2.00000
     11     -16.7560      2.00000
     12     -16.7381      2.00000
     13     -16.6929      2.00000
     14     -16.6846      2.00000
     15     -16.6819      2.00000
     16     -16.6730      2.00000
     17     -16.6717      2.00000
     18     -16.6340      2.00000
     19     -16.6310      2.00000
     20     -16.6265      2.00000
     21     -16.5578      2.00000
     22     -16.5523      2.00000
     23     -16.5340      2.00000
     24     -16.5163      2.00000
     25     -16.5039      2.00000
     26     -16.4785      2.00000
     27     -16.4691      2.00000
     28     -16.4641      2.00000
     29     -16.4499      2.00000
     30     -16.4320      2.00000
     31     -16.4242      2.00000
     32     -16.4169      2.00000
     33     -16.4137      2.00000
     34     -16.3740      2.00000
     35     -16.3723      2.00000
     36     -16.3676      2.00000
     37     -16.3560      2.00000
     38     -16.3504      2.00000
     39     -16.3426      2.00000
     40     -16.3315      2.00000
     41     -16.3273      2.00000
     42     -16.3263      2.00000
     43     -16.3195      2.00000
     44     -16.3188      2.00000
     45     -16.3108      2.00000
     46     -16.2714      2.00000
     47     -16.2697      2.00000
     48     -16.2574      2.00000
     49     -14.6835      2.00000
     50     -14.4131      2.00000
     51     -14.3402      2.00000
     52     -14.3099      2.00000
     53     -14.1793      2.00000
     54     -14.1523      2.00000
     55     -14.1440      2.00000
     56     -14.1268      2.00000
     57     -14.1106      2.00000
     58     -14.0976      2.00000
     59     -14.0647      2.00000
     60     -14.0548      2.00000
     61     -14.0295      2.00000
     62     -14.0221      2.00000
     63     -14.0121      2.00000
     64     -13.9809      2.00000
     65     -13.9595      2.00000
     66     -13.8595      2.00000
     67     -13.8440      2.00000
     68     -13.8037      2.00000
     69     -13.7756      2.00000
     70     -13.5323      2.00000
     71     -13.3034      2.00000
     72      -8.2289      2.00000
     73      -7.8379      2.00000
     74      -7.7956      2.00000
     75      -7.6732      2.00000
     76      -7.3655      2.00000
     77      -7.3055      2.00000
     78      -7.2849      2.00000
     79      -7.2704      2.00000
     80      -7.2593      2.00000
     81      -7.2226      2.00000
     82      -7.2138      2.00000
     83      -7.2054      2.00000
     84      -7.1996      2.00000
     85      -7.1901      2.00000
     86      -7.1795      2.00000
     87      -7.1771      2.00000
     88      -7.1650      2.00000
     89      -7.1592      2.00000
     90      -7.1528      2.00000
     91      -7.1431      2.00000
     92      -7.1363      2.00000
     93      -7.1198      2.00000
     94      -7.1108      2.00000
     95      -7.0912      2.00000
     96      -7.0840      2.00000
     97      -7.0593      2.00000
     98      -7.0456      2.00000
     99      -7.0390      2.00000
    100      -6.9854      2.00000
    101      -6.9552      2.00000
    102      -6.9341      2.00000
    103      -6.6322      2.00000
    104      -3.4233      2.00000
    105      -3.3656      2.00000
    106      -3.3183      2.00000
    107      -3.3049      2.00000
    108      -3.2329      2.00000
    109      -3.2212      2.00000
    110      -3.2128      2.00000
    111      -3.1542      2.00000
    112      -3.0800      2.00000
    113      -3.0142      2.00000
    114      -2.8375      2.00000
    115      -2.6906      2.00000
    116      -2.3594      2.00000
    117      -2.3114      2.00000
    118      -2.1703      2.00000
    119      -2.0878      2.00000
    120      -2.0354      2.00000
    121      -2.0115      2.00000
    122      -2.0078      2.00000
    123      -1.9297      2.00000
    124      -1.8703      2.00000
    125      -1.8542      2.00000
    126      -1.7985      2.00000
    127      -1.7867      2.00000
    128      -1.7249      2.00000
    129      -1.6754      2.00000
    130      -1.6390      2.00000
    131      -1.6226      2.00000
    132      -1.6139      2.00000
    133      -1.5926      2.00000
    134      -1.5589      2.00000
    135      -1.5367      2.00000
    136      -1.5326      2.00000
    137      -1.5002      2.00000
    138      -1.4986      2.00000
    139      -1.4882      2.00000
    140      -1.4538      2.00000
    141      -1.4387      2.00000
    142      -1.4308      2.00000
    143      -1.4145      2.00000
    144      -1.3989      2.00000
    145      -1.3941      2.00000
    146      -1.3796      2.00000
    147      -1.3733      2.00000
    148      -1.3604      2.00000
    149      -1.3420      2.00000
    150      -1.3369      2.00000
    151      -1.3268      2.00000
    152      -1.2644      2.00000
    153      -1.2503      2.00000
    154      -1.2381      2.00000
[...]


--------------------------------------------------------------------------------------------------------


 soft charge-density along one line, spin component           1
         0         1         2         3         4         5         6         7         8         9
 total charge-density along one line

 pseudopotential strength for first ion, spin component:           1
 17.886  -4.682  -0.001  -0.001   0.001   0.001   0.001  -0.002
 -4.682   1.234   0.000   0.000  -0.000  -0.000  -0.000   0.000
 -0.001   0.000   2.230   0.000  -0.000  -2.659  -0.000   0.000
 -0.001   0.000   0.000   2.230  -0.000  -0.000  -2.659   0.000
  0.001  -0.000  -0.000  -0.000   2.230   0.000   0.000  -2.659
  0.001  -0.000  -2.659  -0.000   0.000   3.137   0.000  -0.000
  0.001  -0.000  -0.000  -2.659   0.000   0.000   3.137  -0.000
 -0.002   0.000   0.000   0.000  -2.659  -0.000  -0.000   3.138
 -0.000   0.000   0.001  -0.000  -0.000  -0.001   0.000   0.000
  0.000  -0.000   0.000  -0.000  -0.000  -0.000   0.000   0.000
 -0.000   0.000   0.000  -0.001   0.000  -0.000   0.001  -0.000
 -0.000   0.000  -0.000   0.001  -0.000   0.000  -0.002   0.000
  0.000  -0.000   0.000  -0.000   0.000  -0.001   0.000  -0.000
 total augmentation occupancy for first ion, spin component:           1
  1.914  -0.134  -0.000   0.000   0.000  -0.000  -0.000   0.001  -0.000   0.000  -0.000  -0.000  -0.000
 -0.134   0.131  -0.002  -0.003   0.006   0.001   0.001  -0.001   0.000  -0.001   0.001  -0.001   0.002
 -0.000  -0.002   2.019   0.000  -0.000   0.006   0.000  -0.000   0.002   0.001   0.000  -0.000   0.001
  0.000  -0.003   0.000   2.019  -0.001   0.000   0.006  -0.001  -0.000  -0.000  -0.002   0.003  -0.001
  0.000   0.006  -0.000  -0.001   2.019  -0.000  -0.001   0.006  -0.000  -0.000   0.000  -0.001   0.001
 -0.000   0.001   0.006   0.000  -0.000   0.009  -0.000   0.000  -0.001  -0.002  -0.000   0.000  -0.000
 -0.000   0.001   0.000   0.006  -0.001  -0.000   0.010  -0.000   0.000   0.000   0.002  -0.002   0.001
  0.001  -0.001  -0.000  -0.001   0.006   0.000  -0.000   0.010   0.000   0.000  -0.002   0.000   0.001
 -0.000   0.000   0.002  -0.000  -0.000  -0.001   0.000   0.000   0.007   0.001   0.000  -0.000  -0.000
  0.000  -0.001   0.001  -0.000  -0.000  -0.002   0.000   0.000   0.001   0.005  -0.000   0.000  -0.000
 -0.000   0.001   0.000  -0.002   0.000  -0.000   0.002  -0.002   0.000  -0.000   0.006  -0.003  -0.000
 -0.000  -0.001  -0.000   0.003  -0.001   0.000  -0.002   0.000  -0.000   0.000  -0.003   0.006   0.000
 -0.000   0.002   0.001  -0.001   0.001  -0.000   0.001   0.001  -0.000  -0.000  -0.000   0.000   0.004


------------------------ aborting loop because EDIFF is reached ----------------------------------------





 total charge     

# of ion       s       p       d       tot
------------------------------------------
    1        1.787   4.717   0.021   6.526
    2        1.788   4.717   0.021   6.526
    3        1.786   4.717   0.018   6.521
    4        1.786   4.717   0.019   6.523
    5        1.787   4.716   0.020   6.523
    6        1.788   4.717   0.023   6.528
    7        1.786   4.717   0.018   6.520
    8        1.785   4.716   0.016   6.517
    9        1.553   0.419   9.834  11.806
   10        1.525   0.442   9.829  11.797
   11        1.554   0.421   9.835  11.809
   12        1.541   0.425   9.828  11.794
   13        1.554   0.427   9.836  11.817
   14        1.531   0.431   9.829  11.791
   15        1.554   0.422   9.835  11.810
   16        1.551   0.394   9.828  11.774
   17        1.615   3.286   0.007   4.907
   18        1.614   3.272   0.005   4.891
   19        1.614   3.289   0.007   4.910
   20        1.618   3.285   0.009   4.912
   21        1.615   3.283   0.007   4.906
   22        1.611   3.275   0.004   4.890
   23        1.615   3.285   0.007   4.906
   24        1.615   3.273   0.006   4.894
   25        1.615   3.291   0.007   4.913
   26        1.614   3.282   0.006   4.903
   27        1.614   3.278   0.006   4.898
   28        1.615   3.278   0.006   4.898
   29        1.614   3.276   0.006   4.896
   30        1.614   3.284   0.006   4.904
   31        1.617   3.267   0.008   4.892
   32        1.614   3.287   0.007   4.908
   33        1.614   3.277   0.006   4.897
   34        1.614   3.275   0.006   4.895
   35        1.614   3.285   0.007   4.906
   36        1.615   3.271   0.007   4.893
   37        1.615   3.281   0.007   4.903
   38        1.614   3.279   0.006   4.898
   39        1.611   3.278   0.003   4.893
--------------------------------------------------
tot         63.786 116.553  78.953 259.292

    CHARGE:  cpu time    0.3942: real time    0.3942
    FORLOC:  cpu time    0.0112: real time    0.0112
    FORNL :  cpu time    1.8940: real time    1.8941
    STRESS:  cpu time   49.4689: real time   49.4712
    FORCOR:  cpu time    0.2407: real time    0.2407
    FORHAR:  cpu time    0.0275: real time    0.0275
    MIXING:  cpu time    0.0024: real time    0.0024
    OFIELD:  cpu time    0.0000: real time    0.0000

  FORCE on cell =-STRESS in cart. coord.  units (eV):
  Direction    XX          YY          ZZ          XY          YZ          ZX
  --------------------------------------------------------------------------------------
  Alpha Z   872.70584   872.70584   872.70584
  Ewald   -6078.12299 -5520.34354 -6287.30175    25.71575    21.36718  -359.62141
  Hartree  2406.06106  2843.19256  2252.19831    23.72638    19.82539  -244.68456
  E(xc)   -1449.15255 -1449.11208 -1449.21435    -0.06028    -0.00798    -0.33181
  Local   -2718.46435 -3712.15468 -2355.36039   -48.83090   -41.61728   605.49552
  n-local  1745.94074  1748.33747  1745.50116    -0.53130    -0.51487    -2.18894
  augment   817.92363   818.88211   817.09349    -0.06252    -0.05849    -1.00485
  Kinetic  4397.22601  4390.99541  4399.44118    -0.40083     0.92867     0.83111
  Fock        0.00000     0.00000     0.00000     0.00000     0.00000     0.00000
  -------------------------------------------------------------------------------------
  Total      -5.88262    -7.49691    -4.93652    -0.44369    -0.07737    -1.50494
  in kB      -5.90876    -7.53023    -4.95846    -0.44567    -0.07771    -1.51163
  external pressure =       -6.13 kB  Pullay stress =        0.00 kB


 VOLUME and BASIS-vectors are now :
 -----------------------------------------------------------------------------
  energy-cutoff  :      300.00
  volume of cell :     1595.09
      direct lattice vectors                 reciprocal lattice vectors
     8.456489000  0.000000000  8.040301000     0.059126193 -0.000000000  0.062186727
     0.000000000 11.729847000  0.000000000     0.000000000  0.085252604 -0.000000000
    -8.456489000  0.000000000  8.040301000    -0.059126193  0.000000000  0.062186727

  length of vectors
    11.668703715 11.729847000 11.668703715     0.085808482  0.085252604  0.085808482


 FORCES acting on ions
    electron-ion (+dipol)            ewald-force                    non-local-force                 convergence-correction
 -----------------------------------------------------------------------------------------------
   0.306E+02 0.673E+01 -.267E+02   -.307E+02 -.668E+01 0.267E+02   0.141E+00 -.488E-01 -.923E-01   0.202E-04 0.184E-04 0.807E-04
   -.201E+02 0.226E+02 0.227E+02   0.204E+02 -.224E+02 -.231E+02   -.280E+00 -.163E+00 0.406E+00   -.110E-03 -.898E-05 0.345E-04
   0.172E+02 -.180E+02 -.784E+02   -.173E+02 0.179E+02 0.781E+02   0.126E+00 0.540E-01 0.240E+00   -.613E-04 0.637E-04 -.148E-03
   -.446E+02 -.764E+01 0.762E+01   0.444E+02 0.756E+01 -.746E+01   0.174E+00 0.893E-01 -.149E+00   0.535E-04 -.379E-04 -.104E-04
   0.521E+01 0.115E+02 0.154E+02   -.526E+01 -.113E+02 -.156E+02   0.205E-01 -.130E+00 0.120E+00   0.632E-04 0.338E-04 0.253E-04
   0.674E+02 0.218E+02 -.224E+02   -.675E+02 -.216E+02 0.223E+02   0.233E+00 -.233E+00 0.155E-01   0.551E-04 -.421E-04 -.121E-03
   -.579E+02 -.155E+02 0.374E+02   0.579E+02 0.155E+02 -.377E+02   -.698E-02 0.599E-01 0.235E+00   -.422E-04 0.536E-05 -.669E-04
   -.158E+02 -.110E+02 -.214E+00   0.158E+02 0.109E+02 0.180E+00   0.462E-01 0.859E-01 0.299E-01   0.259E-04 -.213E-04 0.130E-03
   0.365E+02 0.223E+02 0.143E+02   -.371E+02 -.215E+02 -.133E+02   0.607E+00 -.765E+00 -.981E+00   -.875E-04 0.162E-03 -.776E-04
   -.149E+03 0.757E+02 -.116E+03   0.155E+03 -.787E+02 0.121E+03   -.524E+01 0.298E+01 -.456E+01   -.498E-03 0.201E-03 -.387E-03
   -.133E+02 0.233E+02 -.252E+02   0.133E+02 -.234E+02 0.255E+02   0.306E-02 0.211E+00 -.251E+00   0.798E-04 0.119E-03 0.103E-03
   0.941E+02 -.391E+01 0.109E+03   -.976E+02 0.533E+01 -.111E+03   0.347E+01 -.138E+01 0.200E+01   0.316E-03 0.152E-04 0.353E-03
   -.157E+02 -.246E+02 -.231E+02   0.158E+02 0.248E+02 0.232E+02   -.111E+00 -.219E+00 -.732E-01   0.595E-04 -.106E-03 0.562E-04
   0.793E+02 -.209E+02 0.130E+03   -.827E+02 0.214E+02 -.135E+03   0.344E+01 -.493E+00 0.543E+01   0.321E-03 -.107E-03 0.600E-03
   0.300E+02 -.265E+02 0.201E+02   -.299E+02 0.261E+02 -.203E+02   -.138E+00 0.431E+00 0.203E+00   -.155E-04 -.161E-03 -.778E-04
   -.724E+02 -.482E+02 -.520E+02   0.723E+02 0.469E+02 0.517E+02   0.335E+00 0.101E+01 0.443E+00   -.590E-04 -.460E-04 -.494E-04
   -.119E+00 -.539E+01 0.191E+02   -.128E-01 0.536E+01 -.193E+02   0.118E+00 0.525E-02 0.195E+00   0.622E-04 -.186E-04 0.821E-04
   0.468E+02 0.808E+00 0.810E+02   -.469E+02 -.983E+00 -.814E+02   0.535E-01 0.145E+00 0.319E+00   -.380E-04 0.813E-04 0.252E-04
   -.888E+01 0.687E+01 0.301E+02   0.910E+01 -.688E+01 -.302E+02   -.171E+00 0.650E-02 0.816E-01   -.414E-04 -.100E-04 -.526E-04
   0.273E+02 -.257E+02 0.628E+02   -.279E+02 0.264E+02 -.636E+02   0.373E+00 -.552E+00 0.586E+00   0.415E-04 0.164E-06 0.178E-05
   0.376E+02 -.568E+01 -.329E+02   -.378E+02 0.568E+01 0.333E+02   0.215E+00 0.482E-02 -.364E+00   -.534E-04 0.152E-04 -.374E-04
   -.361E+02 -.675E+02 -.518E+02   0.360E+02 0.680E+02 0.518E+02   0.325E-01 -.458E+00 -.968E-01   -.231E-04 0.283E-04 -.731E-05
   -.106E+02 0.606E+01 -.505E+02   0.107E+02 -.605E+01 0.509E+02   -.111E+00 -.148E-01 -.356E+00   0.277E-04 0.939E-05 0.276E-04
   0.297E+02 0.222E+02 0.173E+02   -.300E+02 -.224E+02 -.173E+02   0.415E+00 0.146E+00 0.513E-01   0.250E-04 -.173E-04 0.148E-04
   -.185E+02 -.601E+01 0.188E+02   0.186E+02 0.595E+01 -.190E+02   -.105E+00 0.688E-01 0.180E+00   0.167E-04 -.747E-04 0.519E-04
   0.124E+02 -.246E+02 -.174E+02   -.126E+02 0.248E+02 0.173E+02   0.919E-01 -.140E+00 0.186E+00   -.154E-04 -.527E-04 0.297E-04
   0.180E+02 -.333E+02 0.662E+02   -.182E+02 0.334E+02 -.664E+02   0.207E+00 -.158E+00 0.241E+00   -.371E-04 -.591E-04 -.891E-05
   -.621E+02 0.160E+02 -.195E+02   0.623E+02 -.160E+02 0.197E+02   -.248E+00 -.232E-01 -.188E+00   0.460E-04 0.414E-04 0.233E-04
   0.164E+02 -.902E+01 -.262E+01   -.161E+02 0.927E+01 0.257E+01   -.312E+00 -.244E+00 0.488E-01   -.119E-04 0.480E-04 0.141E-04
   0.350E+02 0.215E+02 -.360E+02   -.352E+02 -.216E+02 0.362E+02   0.228E+00 0.922E-01 -.157E+00   -.135E-04 0.685E-04 -.310E-04
   0.144E+02 0.663E+02 -.372E+02   -.146E+02 -.672E+02 0.378E+02   0.169E+00 0.792E+00 -.570E+00   0.968E-04 0.959E-04 -.395E-04
   -.221E+02 0.545E+01 0.232E+02   0.222E+02 -.536E+01 -.235E+02   -.150E+00 -.997E-01 0.276E+00   -.103E-04 0.829E-04 0.416E-04
   0.555E+01 0.343E+02 -.251E+02   -.566E+01 -.347E+02 0.249E+02   0.133E+00 0.294E+00 0.159E+00   -.681E-05 0.477E-04 0.545E-04
   0.120E+02 0.225E+02 0.887E+02   -.121E+02 -.227E+02 -.892E+02   0.100E+00 0.139E+00 0.391E+00   -.457E-04 0.616E-04 -.695E-04
   0.320E+02 -.245E+02 -.341E+02   -.322E+02 0.246E+02 0.343E+02   0.225E+00 -.902E-01 -.180E+00   0.104E-05 -.656E-04 -.933E-04
   -.614E+01 -.449E+02 -.470E+02   0.629E+01 0.453E+02 0.479E+02   -.518E-01 -.373E+00 -.738E+00   0.891E-04 -.690E-04 0.525E-05
   -.476E+02 -.602E+01 -.144E+02   0.478E+02 0.586E+01 0.147E+02   -.199E+00 0.153E+00 -.229E+00   0.138E-04 -.330E-04 -.359E-06
   0.162E+02 0.936E+01 -.221E+02   -.160E+02 -.958E+01 0.223E+02   -.234E+00 0.223E+00 -.204E+00   0.518E-04 -.786E-04 0.441E-04
   -.652E+02 0.317E+02 -.313E+02   0.655E+02 -.319E+02 0.315E+02   -.617E+00 0.480E+00 -.343E+00   -.915E-04 -.681E-04 -.500E-04
 -----------------------------------------------------------------------------------------------
   -.279E+01 -.193E+01 -.227E+01   -.185E-12 -.497E-13 0.107E-13   0.299E+01 0.189E+01 0.230E+01   0.204E-03 0.121E-03 0.470E-03


 POSITION                                       TOTAL-FORCE (eV/Angst)
 -----------------------------------------------------------------------------------
      0.76070      2.92823      3.64590         0.009090      0.000223     -0.053180
      0.09581      2.99294     12.31147        -0.026645     -0.002595      0.036599
      3.87018      8.78509      7.68090         0.003262     -0.001365     -0.022038
     -4.83627      8.74618      8.02248        -0.014570     -0.001145      0.018738
     -4.08511      3.01917      8.19680        -0.025546      0.002140     -0.009938
      4.99036      2.92945      8.20801         0.190316     -0.028473     -0.064494
     -0.46265      8.79190     12.05609        -0.021802      0.001268      0.003237
     -0.36938      8.69162      4.30224         0.000605      0.018069     -0.008405
     -8.39920     11.66720      8.08619         0.008363      0.010254      0.009351
     -0.02020      0.47464      7.91871         0.175206     -0.129582      0.125395
     -4.13762      0.02361     12.05626         0.024671      0.022127      0.007356
     -3.99326     11.66158      4.30314        -0.001049      0.047371      0.024463
     -4.14013      5.86082     12.06669         0.014718     -0.013674      0.017230
     -4.22301      5.81090      4.03835        -0.011251     -0.075327     -0.011448
      0.03580      5.90997      0.05007        -0.005982     -0.023903      0.003198
     -0.03324      5.66224      7.93683         0.228966     -0.180952      0.188968
     -4.13551      8.81100     11.71485        -0.006905     -0.001735     -0.001535
      4.32158      8.84540     11.42987        -0.003812     -0.014199     -0.008354
     -8.22416      2.92573      7.84031         0.031327     -0.002848      0.034860
     -0.83194      2.86772      6.80447        -0.225114      0.096683     -0.201098
     -0.06946      8.79240      0.65003        -0.000459     -0.000793      0.009761
      0.35593      8.56043      8.49922        -0.022697     -0.005719     -0.042819
      4.35982      2.93577      4.52612        -0.002639      0.002592     -0.016078
     -4.56357      2.90372      4.52446         0.067342     -0.017190      0.090134
     -5.93695      5.65644      9.71358         0.013788      0.007579      0.001755
      1.83729      6.07927      5.66843        -0.048923      0.013716      0.022002
      1.70388      6.28869     13.64162         0.015856      0.009687     -0.004180
     -1.64864      0.40828     10.40142        -0.031872      0.002353      0.019309
     -1.71885      0.42687      2.53017        -0.015165     -0.012687      0.021268
      6.03138     11.46936      6.46251         0.012613     -0.013675      0.002142
     -2.33784     11.02479      6.58427        -0.055160      0.000274     -0.051195
     -5.85978      0.24371      9.64985         0.005022     -0.008786      0.005386
      1.80985     11.45952      5.70217         0.020669     -0.008047     -0.029814
      1.74374     11.24741     13.71311         0.018997     -0.009200     -0.017301
      6.02434      6.12268      6.46306         0.004996      0.013524     -0.003108
     -2.68563      6.30629      6.34992         0.062971     -0.020565      0.025810
     -1.73503      5.47717     10.36343         0.008630     -0.001038     -0.034913
     -1.69788      5.40598      2.47796        -0.010328      0.014909      0.016301
      1.86301      3.47559      9.30769        -0.387488      0.310730     -0.103362
 -----------------------------------------------------------------------------------
    total drift:                                0.195138     -0.043735      0.029943


--------------------------------------------------------------------------------------------------------



  FREE ENERGIE OF THE ION-ELECTRON SYSTEM (eV)
  ---------------------------------------------------
  free  energy   TOTEN  =     -1409.18416700 eV

  energy  without entropy=    -1409.18416700  energy(sigma->0) =    -1409.18416700



--------------------------------------------------------------------------------------------------------


    POTLOK:  cpu time    1.4320: real time    1.4321


--------------------------------------------------------------------------------------------------------


 stress matrix after NEB project (eV)
     -5.88262     -0.44365     -1.50494
     -0.44369     -7.49691     -0.07744
     -1.50512     -0.07737     -4.93652
  FORCES: max atom, RMS     0.507330    0.128293
  FORCE total and by dimension    0.801189    0.387488
  Stress total and by dimension   10.959650    7.496910
     LOOP+:  cpu time  481.4543: real time  482.2238
    4ORBIT:  cpu time    0.0000: real time    0.0000



 total charge     

# of ion       s       p       d       tot
------------------------------------------
    1        1.787   4.717   0.021   6.526
    2        1.788   4.717   0.021   6.526
    3        1.786   4.717   0.018   6.521
    4        1.786   4.717   0.019   6.523
    5        1.787   4.716   0.020   6.523
    6        1.788   4.717   0.023   6.528
    7        1.786   4.717   0.018   6.520
    8        1.785   4.716   0.016   6.517
    9        1.553   0.419   9.834  11.806
   10        1.525   0.442   9.829  11.797
   11        1.554   0.421   9.835  11.809
   12        1.541   0.425   9.828  11.794
   13        1.554   0.427   9.836  11.817
   14        1.531   0.431   9.829  11.791
   15        1.554   0.422   9.835  11.810
   16        1.551   0.394   9.828  11.774
   17        1.615   3.286   0.007   4.907
   18        1.614   3.272   0.005   4.891
   19        1.614   3.289   0.007   4.910
   20        1.618   3.285   0.009   4.912
   21        1.615   3.283   0.007   4.906
   22        1.611   3.275   0.004   4.890
   23        1.615   3.285   0.007   4.906
   24        1.615   3.273   0.006   4.894
   25        1.615   3.291   0.007   4.913
   26        1.614   3.282   0.006   4.903
   27        1.614   3.278   0.006   4.898
   28        1.615   3.278   0.006   4.898
   29        1.614   3.276   0.006   4.896
   30        1.614   3.284   0.006   4.904
   31        1.617   3.267   0.008   4.892
   32        1.614   3.287   0.007   4.908
   33        1.614   3.277   0.006   4.897
   34        1.614   3.275   0.006   4.895
   35        1.614   3.285   0.007   4.906
   36        1.615   3.271   0.007   4.893
   37        1.615   3.281   0.007   4.903
   38        1.614   3.279   0.006   4.898
   39        1.611   3.278   0.003   4.893
--------------------------------------------------
tot         63.786 116.553  78.953 259.292


 total amount of memory used by VASP MPI-rank0    60653. kBytes
=======================================================================

   base      :      30000. kBytes
   nonlr-proj:       6488. kBytes
   fftplans  :       8423. kBytes
   grid      :       7465. kBytes
   one-center:         77. kBytes
   wavefun   :       8200. kBytes

  
  
 General timing and accounting informations for this job:
 ========================================================
  
                  Total CPU time used (sec):      493.797
                            User time (sec):      492.405
                          System time (sec):        1.392
                         Elapsed time (sec):      494.910
  
                   Maximum memory used (kb):       78904.
                   Average memory used (kb):           0.
  
                          Minor page faults:        21173
                          Major page faults:            0
                 Voluntary context switches:         1847
