CsPbBr3 cubic bulk                      
           1
     8.456489    0.000000    8.040301
     0.000000   11.729847    0.000000
    -8.456489    0.000000    8.040301
   Cs   Pb   Br
   8   8  23
Direct configuration=     1
   0.27170400  0.24963900  0.18174900
   0.77127500  0.25515600  0.75994500
   0.70647900  0.74895200  0.24882100
   0.21294200  0.74563500  0.78484200
   0.26819500  0.25739200  0.75126900
   0.80549000  0.24974300  0.21536800
   0.72237400  0.74953200  0.77708300
   0.24570200  0.74098300  0.28938200
   0.00624100  0.99465900  0.99946600
   0.49124400  0.04046400  0.49363300
   0.50509800  0.00201300  0.99438100
   0.03149200  0.99418000  0.50370500
   0.50559800  0.49965000  0.99517800
   0.00144100  0.49539400  0.50082200
   0.00523100  0.50384000  0.00099700
   0.49160000  0.48272100  0.49553100
   0.48399100  0.75116100  0.97302500
   0.96630500  0.75409300  0.45526800
   0.00130000  0.24942600  0.97382700
   0.37395800  0.24448100  0.47233700
   0.03631600  0.74957500  0.04453000
   0.54958300  0.72979900  0.50749400
   0.53924400  0.25028200  0.02368500
   0.01153500  0.24755000  0.55118800
   0.25302700  0.48222600  0.95508500
   0.46113300  0.51827400  0.24386900
   0.94907200  0.53612700  0.74758400
   0.54935200  0.03480700  0.74430800
   0.05571400  0.03639200  0.25897200
   0.75849500  0.97779300  0.04527000
   0.27122700  0.93989200  0.54768200
   0.25362600  0.02077700  0.94655900
   0.46160900  0.97695400  0.24759000
   0.95587400  0.95887100  0.74967300
   0.75811300  0.52197400  0.04572000
   0.23609000  0.53762800  0.55367200
   0.54188200  0.46694300  0.74705400
   0.05370700  0.46087400  0.25448500
   0.68896700  0.29630300  0.46866200
