  20  20   1   0
  0.4033237E+02  0.8588418E-09  0.1199908E-08  0.7827489E-09  0.5000000E-15
   1.0000000000000000E-004
  CAR 
 CsPbBr3 cubic bulk                      
      8.59778302    -22.20429630  301      0.40956360      1.00000000
    -22.204  0.0000E+00  0.0000E+00
    -22.102  0.0000E+00  0.0000E+00
    -21.999  0.0000E+00  0.0000E+00
    -21.896  0.0000E+00  0.0000E+00
    -21.794  0.0000E+00  0.0000E+00
    -21.691  0.0000E+00  0.0000E+00
    -21.588  0.0000E+00  0.0000E+00
    -21.486  0.0000E+00  0.0000E+00
    -21.383  0.0000E+00  0.0000E+00
    -21.280  0.0000E+00  0.0000E+00
    -21.178  0.0000E+00  0.0000E+00
    -21.075  0.0000E+00  0.0000E+00
    -20.972  0.0000E+00  0.0000E+00
    -20.870  0.0000E+00  0.0000E+00
    -20.767  0.7792E+02  0.8000E+01
    -20.664  0.0000E+00  0.8000E+01
    -20.562  0.0000E+00  0.8000E+01
    -20.459  0.0000E+00  0.8000E+01
    -20.356  0.0000E+00  0.8000E+01
    -20.253  0.0000E+00  0.8000E+01
    -20.151  0.0000E+00  0.8000E+01
    -20.048  0.0000E+00  0.8000E+01
    -19.945  0.0000E+00  0.8000E+01
    -19.843  0.0000E+00  0.8000E+01
    -19.740  0.0000E+00  0.8000E+01
    -19.637  0.0000E+00  0.8000E+01
    -19.535  0.0000E+00  0.8000E+01
    -19.432  0.0000E+00  0.8000E+01
    -19.329  0.0000E+00  0.8000E+01
    -19.227  0.0000E+00  0.8000E+01
    -19.124  0.0000E+00  0.8000E+01
    -19.021  0.0000E+00  0.8000E+01
    -18.919  0.0000E+00  0.8000E+01
    -18.816  0.0000E+00  0.8000E+01
    -18.713  0.0000E+00  0.8000E+01
    -18.611  0.0000E+00  0.8000E+01
    -18.508  0.0000E+00  0.8000E+01
    -18.405  0.0000E+00  0.8000E+01
    -18.303  0.0000E+00  0.8000E+01
    -18.200  0.0000E+00  0.8000E+01
    -18.097  0.0000E+00  0.8000E+01
    -17.995  0.0000E+00  0.8000E+01
    -17.892  0.0000E+00  0.8000E+01
    -17.789  0.0000E+00  0.8000E+01
    -17.687  0.0000E+00  0.8000E+01
    -17.584  0.0000E+00  0.8000E+01
    -17.481  0.0000E+00  0.8000E+01
    -17.379  0.0000E+00  0.8000E+01
    -17.276  0.0000E+00  0.8000E+01
    -17.173  0.0000E+00  0.8000E+01
    -17.071  0.0000E+00  0.8000E+01
    -16.968  0.0000E+00  0.8000E+01
    -16.865  0.0000E+00  0.8000E+01
    -16.763  0.0000E+00  0.8000E+01
    -16.660  0.0000E+00  0.8000E+01
    -16.557  0.1549E-05  0.8000E+01
    -16.455  0.1317E+03  0.2153E+02
    -16.352  0.2325E+03  0.4787E+02
    -16.249  0.0000E+00  0.4800E+02
    -16.147  0.0000E+00  0.4800E+02
    -16.044  0.0000E+00  0.4800E+02
    -15.941  0.0000E+00  0.4800E+02
    -15.839  0.0000E+00  0.4800E+02
    -15.736  0.0000E+00  0.4800E+02
    -15.633  0.0000E+00  0.4800E+02
    -15.531  0.0000E+00  0.4800E+02
    -15.428  0.0000E+00  0.4800E+02
    -15.325  0.0000E+00  0.4800E+02
    -15.222  0.0000E+00  0.4800E+02
    -15.120  0.0000E+00  0.4800E+02
    -15.017  0.0000E+00  0.4800E+02
    -14.914  0.0000E+00  0.4800E+02
    -14.812  0.0000E+00  0.4800E+02
    -14.709  0.0000E+00  0.4800E+02
    -14.606  0.0000E+00  0.4800E+02
    -14.504  0.0000E+00  0.4800E+02
    -14.401  0.0000E+00  0.4800E+02
    -14.298  0.1144E+01  0.4812E+02
    -14.196  0.1366E+02  0.5018E+02
    -14.093  0.2926E+02  0.5412E+02
    -13.990  0.4399E+02  0.5918E+02
    -13.888  0.4217E+02  0.6455E+02
    -13.785  0.4832E+02  0.7041E+02
    -13.682  0.8657E+01  0.7200E+02
    -13.580  0.0000E+00  0.7200E+02
    -13.477  0.0000E+00  0.7200E+02
    -13.374  0.0000E+00  0.7200E+02
    -13.272  0.0000E+00  0.7200E+02
    -13.169  0.0000E+00  0.7200E+02
    -13.066  0.0000E+00  0.7200E+02
    -12.964  0.0000E+00  0.7200E+02
    -12.861  0.0000E+00  0.7200E+02
    -12.758  0.0000E+00  0.7200E+02
    -12.656  0.0000E+00  0.7200E+02
    -12.553  0.0000E+00  0.7200E+02
    -12.450  0.0000E+00  0.7200E+02
    -12.348  0.0000E+00  0.7200E+02
    -12.245  0.0000E+00  0.7200E+02
    -12.142  0.0000E+00  0.7200E+02
    -12.040  0.0000E+00  0.7200E+02
    -11.937  0.0000E+00  0.7200E+02
    -11.834  0.0000E+00  0.7200E+02
    -11.732  0.0000E+00  0.7200E+02
    -11.629  0.0000E+00  0.7200E+02
    -11.526  0.0000E+00  0.7200E+02
    -11.424  0.0000E+00  0.7200E+02
    -11.321  0.0000E+00  0.7200E+02
    -11.218  0.0000E+00  0.7200E+02
    -11.116  0.0000E+00  0.7200E+02
    -11.013  0.0000E+00  0.7200E+02
    -10.910  0.0000E+00  0.7200E+02
    -10.808  0.0000E+00  0.7200E+02
    -10.705  0.0000E+00  0.7200E+02
    -10.602  0.0000E+00  0.7200E+02
    -10.500  0.0000E+00  0.7200E+02
    -10.397  0.0000E+00  0.7200E+02
    -10.294  0.0000E+00  0.7200E+02
    -10.191  0.0000E+00  0.7200E+02
    -10.089  0.0000E+00  0.7200E+02
     -9.986  0.0000E+00  0.7200E+02
     -9.883  0.0000E+00  0.7200E+02
     -9.781  0.0000E+00  0.7200E+02
     -9.678  0.0000E+00  0.7200E+02
     -9.575  0.0000E+00  0.7200E+02
     -9.473  0.0000E+00  0.7200E+02
     -9.370  0.0000E+00  0.7200E+02
     -9.267  0.0000E+00  0.7200E+02
     -9.165  0.0000E+00  0.7200E+02
     -9.062  0.0000E+00  0.7200E+02
     -8.959  0.0000E+00  0.7200E+02
     -8.857  0.0000E+00  0.7200E+02
     -8.754  0.0000E+00  0.7200E+02
     -8.651  0.0000E+00  0.7200E+02
     -8.549  0.0000E+00  0.7200E+02
     -8.446  0.0000E+00  0.7200E+02
     -8.343  0.0000E+00  0.7200E+02
     -8.241  0.0000E+00  0.7200E+02
     -8.138  0.1082E+01  0.7211E+02
     -8.035  0.0000E+00  0.7211E+02
     -7.933  0.6492E+01  0.7278E+02
     -7.830  0.2734E+01  0.7306E+02
     -7.727  0.8741E+01  0.7412E+02
     -7.625  0.1491E+01  0.7438E+02
     -7.522  0.4397E+01  0.7556E+02
     -7.419  0.4329E+01  0.7644E+02
     -7.317  0.1299E+02  0.7778E+02
     -7.214  0.6280E+02  0.8423E+02
     -7.111  0.1299E+03  0.1028E+03
     -7.009  0.4329E+01  0.1032E+03
     -6.906  0.6491E+01  0.1039E+03
     -6.803  0.0000E+00  0.1039E+03
     -6.701  0.0000E+00  0.1039E+03
     -6.598  0.1042E+01  0.1040E+03
     -6.495  0.0000E+00  0.1040E+03
     -6.393  0.0000E+00  0.1040E+03
     -6.290  0.0000E+00  0.1040E+03
     -6.187  0.0000E+00  0.1040E+03
     -6.085  0.0000E+00  0.1040E+03
     -5.982  0.0000E+00  0.1040E+03
     -5.879  0.0000E+00  0.1040E+03
     -5.777  0.0000E+00  0.1040E+03
     -5.674  0.0000E+00  0.1040E+03
     -5.571  0.0000E+00  0.1040E+03
     -5.468  0.0000E+00  0.1040E+03
     -5.366  0.0000E+00  0.1040E+03
     -5.263  0.0000E+00  0.1040E+03
     -5.160  0.0000E+00  0.1040E+03
     -5.058  0.0000E+00  0.1040E+03
     -4.955  0.0000E+00  0.1040E+03
     -4.852  0.0000E+00  0.1040E+03
     -4.750  0.0000E+00  0.1040E+03
     -4.647  0.0000E+00  0.1040E+03
     -4.544  0.0000E+00  0.1040E+03
     -4.442  0.0000E+00  0.1040E+03
     -4.339  0.0000E+00  0.1040E+03
     -4.236  0.0000E+00  0.1040E+03
     -4.134  0.0000E+00  0.1040E+03
     -4.031  0.0000E+00  0.1040E+03
     -3.928  0.0000E+00  0.1040E+03
     -3.826  0.0000E+00  0.1040E+03
     -3.723  0.0000E+00  0.1040E+03
     -3.620  0.0000E+00  0.1040E+03
     -3.518  0.0000E+00  0.1040E+03
     -3.415  0.0000E+00  0.1040E+03
     -3.312  0.7969E+00  0.1041E+03
     -3.210  0.3494E+01  0.1045E+03
     -3.107  0.2263E+02  0.1078E+03
     -3.004  0.6174E+01  0.1087E+03
     -2.902  0.7938E+01  0.1097E+03
     -2.799  0.9111E+01  0.1112E+03
     -2.696  0.1698E+02  0.1133E+03
     -2.594  0.6488E+01  0.1140E+03
     -2.491  0.4089E+00  0.1140E+03
     -2.388  0.1163E+02  0.1161E+03
     -2.286  0.3619E+01  0.1181E+03
     -2.183  0.1137E+02  0.1194E+03
     -2.080  0.2150E+02  0.1220E+03
     -1.978  0.3239E+02  0.1259E+03
     -1.875  0.4333E+01  0.1268E+03
     -1.772  0.9623E+01  0.1279E+03
     -1.670  0.4437E+02  0.1327E+03
     -1.567  0.8847E+01  0.1347E+03
     -1.464  0.4137E+02  0.1394E+03
     -1.362  0.5257E+02  0.1456E+03
     -1.259  0.4213E+02  0.1528E+03
     -1.156  0.4712E+02  0.1585E+03
     -1.054  0.4753E+02  0.1659E+03
     -0.951  0.1625E+02  0.1680E+03
     -0.848  0.9119E+01  0.1692E+03
     -0.746  0.1005E+02  0.1710E+03
     -0.643  0.1163E+02  0.1724E+03
     -0.540  0.1527E+02  0.1740E+03
     -0.437  0.4307E+01  0.1747E+03
     -0.335  0.0000E+00  0.1747E+03
     -0.232  0.1903E+00  0.1747E+03
     -0.129  0.7531E+01  0.1757E+03
     -0.027  0.2164E+01  0.1759E+03
      0.076  0.0000E+00  0.1759E+03
      0.179  0.0000E+00  0.1759E+03
      0.281  0.2403E-15  0.1759E+03
      0.384  0.1082E+01  0.1760E+03
      0.487  0.0000E+00  0.1760E+03
      0.589  0.0000E+00  0.1760E+03
      0.692  0.0000E+00  0.1760E+03
      0.795  0.0000E+00  0.1760E+03
      0.897  0.0000E+00  0.1760E+03
      1.000  0.0000E+00  0.1760E+03
      1.103  0.0000E+00  0.1760E+03
      1.205  0.0000E+00  0.1760E+03
      1.308  0.0000E+00  0.1760E+03
      1.411  0.0000E+00  0.1760E+03
      1.513  0.0000E+00  0.1760E+03
      1.616  0.0000E+00  0.1760E+03
      1.719  0.0000E+00  0.1760E+03
      1.821  0.0000E+00  0.1760E+03
      1.924  0.0000E+00  0.1760E+03
      2.027  0.0000E+00  0.1760E+03
      2.129  0.0000E+00  0.1760E+03
      2.232  0.0000E+00  0.1760E+03
      2.335  0.0000E+00  0.1760E+03
      2.437  0.0000E+00  0.1760E+03
      2.540  0.0000E+00  0.1760E+03
      2.643  0.1278E+01  0.1761E+03
      2.745  0.6371E-09  0.1762E+03
      2.848  0.4542E+01  0.1767E+03
      2.951  0.6896E-01  0.1773E+03
      3.053  0.6744E+01  0.1781E+03
      3.156  0.4408E+01  0.1789E+03
      3.259  0.8657E+01  0.1800E+03
      3.361  0.1088E+01  0.1801E+03
      3.464  0.6493E+01  0.1809E+03
      3.567  0.5333E+01  0.1814E+03
      3.669  0.5280E-01  0.1816E+03
      3.772  0.2162E+01  0.1824E+03
      3.875  0.1080E+02  0.1836E+03
      3.977  0.4938E+01  0.1841E+03
      4.080  0.2164E+01  0.1853E+03
      4.183  0.7465E+01  0.1861E+03
      4.285  0.8586E+01  0.1871E+03
      4.388  0.8657E+01  0.1880E+03
      4.491  0.8657E+01  0.1889E+03
      4.594  0.8657E+01  0.1898E+03
      4.696  0.4383E+00  0.1898E+03
      4.799  0.4319E+01  0.1904E+03
      4.902  0.4129E+01  0.1909E+03
      5.004  0.3207E+01  0.1913E+03
      5.107  0.4508E+01  0.1928E+03
      5.210  0.9720E+01  0.1940E+03
      5.312  0.7457E+01  0.1951E+03
      5.415  0.2842E+00  0.1953E+03
      5.518  0.4325E+01  0.1962E+03
      5.620  0.2946E+00  0.1963E+03
      5.723  0.1355E+02  0.1978E+03
      5.826  0.5054E+01  0.1984E+03
      5.928  0.5530E+01  0.1993E+03
      6.031  0.1721E+02  0.2018E+03
      6.134  0.5724E+01  0.2024E+03
      6.236  0.9340E+01  0.2036E+03
      6.339  0.1833E+02  0.2055E+03
      6.442  0.2799E+02  0.2084E+03
      6.544  0.1125E+02  0.2096E+03
      6.647  0.2726E+02  0.2126E+03
      6.750  0.1836E+02  0.2149E+03
      6.852  0.2460E+02  0.2174E+03
      6.955  0.9750E+01  0.2194E+03
      7.058  0.1945E+02  0.2220E+03
      7.160  0.1190E+02  0.2233E+03
      7.263  0.6492E+01  0.2240E+03
      7.366  0.0000E+00  0.2240E+03
      7.468  0.0000E+00  0.2240E+03
      7.571  0.0000E+00  0.2240E+03
      7.674  0.0000E+00  0.2240E+03
      7.776  0.0000E+00  0.2240E+03
      7.879  0.0000E+00  0.2240E+03
      7.982  0.0000E+00  0.2240E+03
      8.084  0.0000E+00  0.2240E+03
      8.187  0.0000E+00  0.2240E+03
      8.290  0.0000E+00  0.2240E+03
      8.392  0.0000E+00  0.2240E+03
      8.495  0.0000E+00  0.2240E+03
      8.598  0.0000E+00  0.2240E+03
      8.59778302    -22.20429630  301      0.40956360      1.00000000
    -22.204  0.0000E+00  0.0000E+00  0.0000E+00
    -22.102  0.0000E+00  0.0000E+00  0.0000E+00
    -21.999  0.0000E+00  0.0000E+00  0.0000E+00
    -21.896  0.0000E+00  0.0000E+00  0.0000E+00
    -21.794  0.0000E+00  0.0000E+00  0.0000E+00
    -21.691  0.0000E+00  0.0000E+00  0.0000E+00
    -21.588  0.0000E+00  0.0000E+00  0.0000E+00
    -21.486  0.0000E+00  0.0000E+00  0.0000E+00
    -21.383  0.0000E+00  0.0000E+00  0.0000E+00
    -21.280  0.0000E+00  0.0000E+00  0.0000E+00
    -21.178  0.0000E+00  0.0000E+00  0.0000E+00
    -21.075  0.0000E+00  0.0000E+00  0.0000E+00
    -20.972  0.0000E+00  0.0000E+00  0.0000E+00
    -20.870  0.0000E+00  0.0000E+00  0.0000E+00
    -20.767  0.1729E+02  0.8829E-05  0.2561E-05
    -20.664  0.0000E+00  0.0000E+00  0.0000E+00
    -20.562  0.0000E+00  0.0000E+00  0.0000E+00
    -20.459  0.0000E+00  0.0000E+00  0.0000E+00
    -20.356  0.0000E+00  0.0000E+00  0.0000E+00
    -20.253  0.0000E+00  0.0000E+00  0.0000E+00
    -20.151  0.0000E+00  0.0000E+00  0.0000E+00
    -20.048  0.0000E+00  0.0000E+00  0.0000E+00
    -19.945  0.0000E+00  0.0000E+00  0.0000E+00
    -19.843  0.0000E+00  0.0000E+00  0.0000E+00
    -19.740  0.0000E+00  0.0000E+00  0.0000E+00
    -19.637  0.0000E+00  0.0000E+00  0.0000E+00
    -19.535  0.0000E+00  0.0000E+00  0.0000E+00
    -19.432  0.0000E+00  0.0000E+00  0.0000E+00
    -19.329  0.0000E+00  0.0000E+00  0.0000E+00
    -19.227  0.0000E+00  0.0000E+00  0.0000E+00
    -19.124  0.0000E+00  0.0000E+00  0.0000E+00
    -19.021  0.0000E+00  0.0000E+00  0.0000E+00
    -18.919  0.0000E+00  0.0000E+00  0.0000E+00
    -18.816  0.0000E+00  0.0000E+00  0.0000E+00
    -18.713  0.0000E+00  0.0000E+00  0.0000E+00
    -18.611  0.0000E+00  0.0000E+00  0.0000E+00
    -18.508  0.0000E+00  0.0000E+00  0.0000E+00
    -18.405  0.0000E+00  0.0000E+00  0.0000E+00
    -18.303  0.0000E+00  0.0000E+00  0.0000E+00
    -18.200  0.0000E+00  0.0000E+00  0.0000E+00
    -18.097  0.0000E+00  0.0000E+00  0.0000E+00
    -17.995  0.0000E+00  0.0000E+00  0.0000E+00
    -17.892  0.0000E+00  0.0000E+00  0.0000E+00
    -17.789  0.0000E+00  0.0000E+00  0.0000E+00
    -17.687  0.0000E+00  0.0000E+00  0.0000E+00
    -17.584  0.0000E+00  0.0000E+00  0.0000E+00
    -17.481  0.0000E+00  0.0000E+00  0.0000E+00
    -17.379  0.0000E+00  0.0000E+00  0.0000E+00
    -17.276  0.0000E+00  0.0000E+00  0.0000E+00
    -17.173  0.0000E+00  0.0000E+00  0.0000E+00
    -17.071  0.0000E+00  0.0000E+00  0.0000E+00
    -16.968  0.0000E+00  0.0000E+00  0.0000E+00
    -16.865  0.0000E+00  0.0000E+00  0.0000E+00
    -16.763  0.0000E+00  0.0000E+00  0.0000E+00
    -16.660  0.0000E+00  0.0000E+00  0.0000E+00
    -16.557  0.3774E-11  0.1217E-11  0.3237E-12
    -16.455  0.9423E-04  0.9552E-04  0.1885E-04
    -16.352  0.7732E-04  0.4238E-04  0.5285E-05
    -16.249  0.0000E+00  0.0000E+00  0.0000E+00
    -16.147  0.0000E+00  0.0000E+00  0.0000E+00
    -16.044  0.0000E+00  0.0000E+00  0.0000E+00
    -15.941  0.0000E+00  0.0000E+00  0.0000E+00
    -15.839  0.0000E+00  0.0000E+00  0.0000E+00
    -15.736  0.0000E+00  0.0000E+00  0.0000E+00
    -15.633  0.0000E+00  0.0000E+00  0.0000E+00
    -15.531  0.0000E+00  0.0000E+00  0.0000E+00
    -15.428  0.0000E+00  0.0000E+00  0.0000E+00
    -15.325  0.0000E+00  0.0000E+00  0.0000E+00
    -15.222  0.0000E+00  0.0000E+00  0.0000E+00
    -15.120  0.0000E+00  0.0000E+00  0.0000E+00
    -15.017  0.0000E+00  0.0000E+00  0.0000E+00
    -14.914  0.0000E+00  0.0000E+00  0.0000E+00
    -14.812  0.0000E+00  0.0000E+00  0.0000E+00
    -14.709  0.0000E+00  0.0000E+00  0.0000E+00
    -14.606  0.0000E+00  0.0000E+00  0.0000E+00
    -14.504  0.0000E+00  0.0000E+00  0.0000E+00
    -14.401  0.0000E+00  0.0000E+00  0.0000E+00
    -14.298  0.4806E-03  0.7844E-05  0.6950E-06
    -14.196  0.2428E-02  0.2088E-02  0.3234E-04
    -14.093  0.1038E-02  0.4856E-02  0.1843E-03
    -13.990  0.2837E-02  0.6026E-02  0.4828E-03
    -13.888  0.5452E-03  0.3468E-02  0.3714E-03
    -13.785  0.1068E-02  0.3291E-02  0.4805E-03
    -13.682  0.3866E-03  0.5367E-03  0.7002E-04
    -13.580  0.0000E+00  0.0000E+00  0.0000E+00
    -13.477  0.0000E+00  0.0000E+00  0.0000E+00
    -13.374  0.0000E+00  0.0000E+00  0.0000E+00
    -13.272  0.0000E+00  0.0000E+00  0.0000E+00
    -13.169  0.0000E+00  0.0000E+00  0.0000E+00
    -13.066  0.0000E+00  0.0000E+00  0.0000E+00
    -12.964  0.0000E+00  0.0000E+00  0.0000E+00
    -12.861  0.0000E+00  0.0000E+00  0.0000E+00
    -12.758  0.0000E+00  0.0000E+00  0.0000E+00
    -12.656  0.0000E+00  0.0000E+00  0.0000E+00
    -12.553  0.0000E+00  0.0000E+00  0.0000E+00
    -12.450  0.0000E+00  0.0000E+00  0.0000E+00
    -12.348  0.0000E+00  0.0000E+00  0.0000E+00
    -12.245  0.0000E+00  0.0000E+00  0.0000E+00
    -12.142  0.0000E+00  0.0000E+00  0.0000E+00
    -12.040  0.0000E+00  0.0000E+00  0.0000E+00
    -11.937  0.0000E+00  0.0000E+00  0.0000E+00
    -11.834  0.0000E+00  0.0000E+00  0.0000E+00
    -11.732  0.0000E+00  0.0000E+00  0.0000E+00
    -11.629  0.0000E+00  0.0000E+00  0.0000E+00
    -11.526  0.0000E+00  0.0000E+00  0.0000E+00
    -11.424  0.0000E+00  0.0000E+00  0.0000E+00
    -11.321  0.0000E+00  0.0000E+00  0.0000E+00
    -11.218  0.0000E+00  0.0000E+00  0.0000E+00
    -11.116  0.0000E+00  0.0000E+00  0.0000E+00
    -11.013  0.0000E+00  0.0000E+00  0.0000E+00
    -10.910  0.0000E+00  0.0000E+00  0.0000E+00
    -10.808  0.0000E+00  0.0000E+00  0.0000E+00
    -10.705  0.0000E+00  0.0000E+00  0.0000E+00
    -10.602  0.0000E+00  0.0000E+00  0.0000E+00
    -10.500  0.0000E+00  0.0000E+00  0.0000E+00
    -10.397  0.0000E+00  0.0000E+00  0.0000E+00
    -10.294  0.0000E+00  0.0000E+00  0.0000E+00
    -10.191  0.0000E+00  0.0000E+00  0.0000E+00
    -10.089  0.0000E+00  0.0000E+00  0.0000E+00
     -9.986  0.0000E+00  0.0000E+00  0.0000E+00
     -9.883  0.0000E+00  0.0000E+00  0.0000E+00
     -9.781  0.0000E+00  0.0000E+00  0.0000E+00
     -9.678  0.0000E+00  0.0000E+00  0.0000E+00
     -9.575  0.0000E+00  0.0000E+00  0.0000E+00
     -9.473  0.0000E+00  0.0000E+00  0.0000E+00
     -9.370  0.0000E+00  0.0000E+00  0.0000E+00
     -9.267  0.0000E+00  0.0000E+00  0.0000E+00
     -9.165  0.0000E+00  0.0000E+00  0.0000E+00
     -9.062  0.0000E+00  0.0000E+00  0.0000E+00
     -8.959  0.0000E+00  0.0000E+00  0.0000E+00
     -8.857  0.0000E+00  0.0000E+00  0.0000E+00
     -8.754  0.0000E+00  0.0000E+00  0.0000E+00
     -8.651  0.0000E+00  0.0000E+00  0.0000E+00
     -8.549  0.0000E+00  0.0000E+00  0.0000E+00
     -8.446  0.0000E+00  0.0000E+00  0.0000E+00
     -8.343  0.0000E+00  0.0000E+00  0.0000E+00
     -8.241  0.0000E+00  0.0000E+00  0.0000E+00
     -8.138  0.2968E-17  0.1337E-03  0.8063E-05
     -8.035  0.0000E+00  0.0000E+00  0.0000E+00
     -7.933  0.5271E-06  0.5597E-02  0.4023E-04
     -7.830  0.1480E-17  0.4766E-02  0.1990E-04
     -7.727  0.1099E-04  0.2247E-01  0.4711E-04
     -7.625  0.3009E-05  0.6052E-02  0.8985E-05
     -7.522  0.1272E-06  0.2292E-01  0.9177E-05
     -7.419  0.1186E-13  0.2662E-01  0.2781E-04
     -7.317  0.4614E-04  0.2602E+00  0.4163E-04
     -7.214  0.6036E-04  0.1065E+02  0.6535E-04
     -7.111  0.3824E-04  0.2423E+02  0.6026E-04
     -7.009  0.1534E-04  0.1329E+00  0.2314E-04
     -6.906  0.4665E-04  0.6175E-01  0.2184E-04
     -6.803  0.0000E+00  0.0000E+00  0.0000E+00
     -6.701  0.0000E+00  0.0000E+00  0.0000E+00
     -6.598  0.8961E-05  0.2878E-02  0.7496E-06
     -6.495  0.0000E+00  0.0000E+00  0.0000E+00
     -6.393  0.0000E+00  0.0000E+00  0.0000E+00
     -6.290  0.0000E+00  0.0000E+00  0.0000E+00
     -6.187  0.0000E+00  0.0000E+00  0.0000E+00
     -6.085  0.0000E+00  0.0000E+00  0.0000E+00
     -5.982  0.0000E+00  0.0000E+00  0.0000E+00
     -5.879  0.0000E+00  0.0000E+00  0.0000E+00
     -5.777  0.0000E+00  0.0000E+00  0.0000E+00
     -5.674  0.0000E+00  0.0000E+00  0.0000E+00
     -5.571  0.0000E+00  0.0000E+00  0.0000E+00
     -5.468  0.0000E+00  0.0000E+00  0.0000E+00
     -5.366  0.0000E+00  0.0000E+00  0.0000E+00
     -5.263  0.0000E+00  0.0000E+00  0.0000E+00
     -5.160  0.0000E+00  0.0000E+00  0.0000E+00
     -5.058  0.0000E+00  0.0000E+00  0.0000E+00
     -4.955  0.0000E+00  0.0000E+00  0.0000E+00
     -4.852  0.0000E+00  0.0000E+00  0.0000E+00
     -4.750  0.0000E+00  0.0000E+00  0.0000E+00
     -4.647  0.0000E+00  0.0000E+00  0.0000E+00
     -4.544  0.0000E+00  0.0000E+00  0.0000E+00
     -4.442  0.0000E+00  0.0000E+00  0.0000E+00
     -4.339  0.0000E+00  0.0000E+00  0.0000E+00
     -4.236  0.0000E+00  0.0000E+00  0.0000E+00
     -4.134  0.0000E+00  0.0000E+00  0.0000E+00
     -4.031  0.0000E+00  0.0000E+00  0.0000E+00
     -3.928  0.0000E+00  0.0000E+00  0.0000E+00
     -3.826  0.0000E+00  0.0000E+00  0.0000E+00
     -3.723  0.0000E+00  0.0000E+00  0.0000E+00
     -3.620  0.0000E+00  0.0000E+00  0.0000E+00
     -3.518  0.0000E+00  0.0000E+00  0.0000E+00
     -3.415  0.0000E+00  0.0000E+00  0.0000E+00
     -3.312  0.3945E-04  0.1436E-02  0.2793E-04
     -3.210  0.5680E-04  0.3441E-02  0.1877E-03
     -3.107  0.6160E-03  0.2641E-01  0.2823E-02
     -3.004  0.2096E-03  0.4439E-02  0.7322E-03
     -2.902  0.3668E-03  0.1165E-01  0.5844E-03
     -2.799  0.1065E-03  0.9766E-02  0.8008E-03
     -2.696  0.7236E-03  0.1644E-01  0.1476E-02
     -2.594  0.1618E-15  0.3628E-02  0.3109E-03
     -2.491  0.3369E-05  0.7158E-03  0.5227E-04
     -2.388  0.1227E-02  0.1608E-01  0.9972E-03
     -2.286  0.6811E-03  0.1654E-02  0.3087E-03
     -2.183  0.3853E-02  0.9693E-02  0.1172E-02
     -2.080  0.9990E-02  0.2649E-01  0.2739E-02
     -1.978  0.2021E-01  0.5785E-01  0.7213E-02
     -1.875  0.2250E-02  0.1858E-01  0.5981E-03
     -1.772  0.4853E-03  0.6167E-01  0.2132E-02
     -1.670  0.5052E-02  0.1446E+00  0.1565E-01
     -1.567  0.4543E-03  0.3022E-01  0.2334E-02
     -1.464  0.5697E-02  0.7812E-01  0.1657E-01
     -1.362  0.3488E-02  0.7739E-01  0.2445E-01
     -1.259  0.5438E-02  0.5448E-01  0.1056E-01
     -1.156  0.2254E-02  0.8607E-01  0.1229E-01
     -1.054  0.1867E-02  0.5127E-01  0.1191E-01
     -0.951  0.7081E-03  0.1568E-01  0.4260E-02
     -0.848  0.3180E-03  0.1224E-01  0.3040E-02
     -0.746  0.5514E-03  0.1403E-01  0.1834E-02
     -0.643  0.7045E-03  0.4961E-02  0.1546E-02
     -0.540  0.6446E-03  0.6176E-02  0.1869E-02
     -0.437  0.1968E-14  0.3120E-02  0.7427E-04
     -0.335  0.0000E+00  0.0000E+00  0.0000E+00
     -0.232  0.1156E-12  0.7492E-05  0.2997E-04
     -0.129  0.1363E-04  0.2104E-02  0.1132E-02
     -0.027  0.9079E-05  0.4370E-03  0.2917E-03
      0.076  0.0000E+00  0.0000E+00  0.0000E+00
      0.179  0.0000E+00  0.0000E+00  0.0000E+00
      0.281  0.2557E-31  0.1892E-19  0.3077E-19
      0.384  0.1152E-15  0.8521E-04  0.1386E-03
      0.487  0.0000E+00  0.0000E+00  0.0000E+00
      0.589  0.0000E+00  0.0000E+00  0.0000E+00
      0.692  0.0000E+00  0.0000E+00  0.0000E+00
      0.795  0.0000E+00  0.0000E+00  0.0000E+00
      0.897  0.0000E+00  0.0000E+00  0.0000E+00
      1.000  0.0000E+00  0.0000E+00  0.0000E+00
      1.103  0.0000E+00  0.0000E+00  0.0000E+00
      1.205  0.0000E+00  0.0000E+00  0.0000E+00
      1.308  0.0000E+00  0.0000E+00  0.0000E+00
      1.411  0.0000E+00  0.0000E+00  0.0000E+00
      1.513  0.0000E+00  0.0000E+00  0.0000E+00
      1.616  0.0000E+00  0.0000E+00  0.0000E+00
      1.719  0.0000E+00  0.0000E+00  0.0000E+00
      1.821  0.0000E+00  0.0000E+00  0.0000E+00
      1.924  0.0000E+00  0.0000E+00  0.0000E+00
      2.027  0.0000E+00  0.0000E+00  0.0000E+00
      2.129  0.0000E+00  0.0000E+00  0.0000E+00
      2.232  0.0000E+00  0.0000E+00  0.0000E+00
      2.335  0.0000E+00  0.0000E+00  0.0000E+00
      2.437  0.0000E+00  0.0000E+00  0.0000E+00
      2.540  0.0000E+00  0.0000E+00  0.0000E+00
      2.643  0.3678E-04  0.2299E-03  0.6240E-03
      2.745  0.3237E-13  0.9705E-13  0.2341E-12
      2.848  0.2584E-03  0.9087E-03  0.1542E-02
      2.951  0.9540E-17  0.4027E-06  0.6350E-04
      3.053  0.3498E-03  0.2648E-02  0.1663E-02
      3.156  0.2192E-03  0.1068E-02  0.7803E-03
      3.259  0.8767E-03  0.5436E-02  0.3373E-02
      3.361  0.2891E-05  0.1814E-03  0.1115E-03
      3.464  0.9946E-03  0.2193E-02  0.4134E-02
      3.567  0.4404E-03  0.1287E-02  0.5342E-02
      3.669  0.6036E-05  0.1529E-04  0.4130E-04
      3.772  0.6920E-03  0.3054E-03  0.1162E-02
      3.875  0.1626E-03  0.1384E-02  0.6692E-02
      3.977  0.4867E-03  0.1459E-02  0.2520E-02
      4.080  0.3127E-03  0.2049E-03  0.8851E-03
      4.183  0.2745E-03  0.1835E-02  0.3396E-02
      4.285  0.7651E-03  0.2701E-02  0.7525E-02
      4.388  0.3978E-04  0.3759E-02  0.7839E-02
      4.491  0.1061E-02  0.1490E-02  0.2392E-02
      4.594  0.1519E-02  0.2768E-02  0.3754E-02
      4.696  0.2132E-03  0.1396E-03  0.1836E-03
      4.799  0.3538E-13  0.4428E-03  0.5031E-02
      4.902  0.1110E-01  0.1334E-02  0.4130E-02
      5.004  0.5772E-03  0.7086E-03  0.4907E-02
      5.107  0.2530E-02  0.3094E-02  0.4572E-02
      5.210  0.9307E-02  0.4600E-02  0.7587E-02
      5.312  0.4498E-02  0.3931E-02  0.6367E-02
      5.415  0.1802E-07  0.9980E-05  0.6782E-03
      5.518  0.1913E-01  0.3078E-02  0.8632E-02
      5.620  0.7047E-14  0.7737E-05  0.6104E-03
      5.723  0.1369E-01  0.4134E-02  0.2826E-01
      5.826  0.7666E-02  0.1530E-02  0.1135E-01
      5.928  0.3241E-02  0.2330E-02  0.1726E-01
      6.031  0.6350E-01  0.1432E-01  0.1237E+00
      6.134  0.3179E-02  0.3469E-02  0.8061E-01
      6.236  0.8158E-02  0.6028E-02  0.2598E+00
      6.339  0.5399E-01  0.4320E-01  0.2890E+00
      6.442  0.7231E-01  0.3605E-01  0.6835E+00
      6.544  0.3030E-01  0.8342E-02  0.2910E+00
      6.647  0.2827E-01  0.4664E-01  0.7427E+00
      6.750  0.5540E-01  0.2207E-01  0.4618E+00
      6.852  0.9157E-02  0.5518E-01  0.7838E+00
      6.955  0.7333E-02  0.6543E-02  0.4298E+00
      7.058  0.3515E-01  0.3832E-01  0.6298E+00
      7.160  0.1189E-01  0.3159E-01  0.2922E+00
      7.263  0.1143E-02  0.1399E-01  0.2128E+00
      7.366  0.0000E+00  0.0000E+00  0.0000E+00
      7.468  0.0000E+00  0.0000E+00  0.0000E+00
      7.571  0.0000E+00  0.0000E+00  0.0000E+00
      7.674  0.0000E+00  0.0000E+00  0.0000E+00
      7.776  0.0000E+00  0.0000E+00  0.0000E+00
      7.879  0.0000E+00  0.0000E+00  0.0000E+00
      7.982  0.0000E+00  0.0000E+00  0.0000E+00
      8.084  0.0000E+00  0.0000E+00  0.0000E+00
      8.187  0.0000E+00  0.0000E+00  0.0000E+00
      8.290  0.0000E+00  0.0000E+00  0.0000E+00
      8.392  0.0000E+00  0.0000E+00  0.0000E+00
      8.495  0.0000E+00  0.0000E+00  0.0000E+00
      8.598  0.0000E+00  0.0000E+00  0.0000E+00
      8.59778302    -22.20429630  301      0.40956360      1.00000000
    -22.204  0.0000E+00  0.0000E+00  0.0000E+00
    -22.102  0.0000E+00  0.0000E+00  0.0000E+00
    -21.999  0.0000E+00  0.0000E+00  0.0000E+00
    -21.896  0.0000E+00  0.0000E+00  0.0000E+00
    -21.794  0.0000E+00  0.0000E+00  0.0000E+00
    -21.691  0.0000E+00  0.0000E+00  0.0000E+00
    -21.588  0.0000E+00  0.0000E+00  0.0000E+00
    -21.486  0.0000E+00  0.0000E+00  0.0000E+00
    -21.383  0.0000E+00  0.0000E+00  0.0000E+00
    -21.280  0.0000E+00  0.0000E+00  0.0000E+00
    -21.178  0.0000E+00  0.0000E+00  0.0000E+00
    -21.075  0.0000E+00  0.0000E+00  0.0000E+00
    -20.972  0.0000E+00  0.0000E+00  0.0000E+00
    -20.870  0.0000E+00  0.0000E+00  0.0000E+00
    -20.767  0.1729E+02  0.8821E-05  0.2573E-05
    -20.664  0.0000E+00  0.0000E+00  0.0000E+00
    -20.562  0.0000E+00  0.0000E+00  0.0000E+00
    -20.459  0.0000E+00  0.0000E+00  0.0000E+00
    -20.356  0.0000E+00  0.0000E+00  0.0000E+00
    -20.253  0.0000E+00  0.0000E+00  0.0000E+00
    -20.151  0.0000E+00  0.0000E+00  0.0000E+00
    -20.048  0.0000E+00  0.0000E+00  0.0000E+00
    -19.945  0.0000E+00  0.0000E+00  0.0000E+00
    -19.843  0.0000E+00  0.0000E+00  0.0000E+00
    -19.740  0.0000E+00  0.0000E+00  0.0000E+00
    -19.637  0.0000E+00  0.0000E+00  0.0000E+00
    -19.535  0.0000E+00  0.0000E+00  0.0000E+00
    -19.432  0.0000E+00  0.0000E+00  0.0000E+00
    -19.329  0.0000E+00  0.0000E+00  0.0000E+00
    -19.227  0.0000E+00  0.0000E+00  0.0000E+00
    -19.124  0.0000E+00  0.0000E+00  0.0000E+00
    -19.021  0.0000E+00  0.0000E+00  0.0000E+00
    -18.919  0.0000E+00  0.0000E+00  0.0000E+00
    -18.816  0.0000E+00  0.0000E+00  0.0000E+00
    -18.713  0.0000E+00  0.0000E+00  0.0000E+00
    -18.611  0.0000E+00  0.0000E+00  0.0000E+00
    -18.508  0.0000E+00  0.0000E+00  0.0000E+00
    -18.405  0.0000E+00  0.0000E+00  0.0000E+00
    -18.303  0.0000E+00  0.0000E+00  0.0000E+00
    -18.200  0.0000E+00  0.0000E+00  0.0000E+00
    -18.097  0.0000E+00  0.0000E+00  0.0000E+00
    -17.995  0.0000E+00  0.0000E+00  0.0000E+00
    -17.892  0.0000E+00  0.0000E+00  0.0000E+00
    -17.789  0.0000E+00  0.0000E+00  0.0000E+00
    -17.687  0.0000E+00  0.0000E+00  0.0000E+00
    -17.584  0.0000E+00  0.0000E+00  0.0000E+00
    -17.481  0.0000E+00  0.0000E+00  0.0000E+00
    -17.379  0.0000E+00  0.0000E+00  0.0000E+00
    -17.276  0.0000E+00  0.0000E+00  0.0000E+00
    -17.173  0.0000E+00  0.0000E+00  0.0000E+00
    -17.071  0.0000E+00  0.0000E+00  0.0000E+00
    -16.968  0.0000E+00  0.0000E+00  0.0000E+00
    -16.865  0.0000E+00  0.0000E+00  0.0000E+00
    -16.763  0.0000E+00  0.0000E+00  0.0000E+00
    -16.660  0.0000E+00  0.0000E+00  0.0000E+00
    -16.557  0.8742E-12  0.1145E-11  0.3353E-12
    -16.455  0.9202E-04  0.9261E-04  0.1889E-04
    -16.352  0.7698E-04  0.4197E-04  0.5222E-05
    -16.249  0.0000E+00  0.0000E+00  0.0000E+00
    -16.147  0.0000E+00  0.0000E+00  0.0000E+00
    -16.044  0.0000E+00  0.0000E+00  0.0000E+00
    -15.941  0.0000E+00  0.0000E+00  0.0000E+00
    -15.839  0.0000E+00  0.0000E+00  0.0000E+00
    -15.736  0.0000E+00  0.0000E+00  0.0000E+00
    -15.633  0.0000E+00  0.0000E+00  0.0000E+00
    -15.531  0.0000E+00  0.0000E+00  0.0000E+00
    -15.428  0.0000E+00  0.0000E+00  0.0000E+00
    -15.325  0.0000E+00  0.0000E+00  0.0000E+00
    -15.222  0.0000E+00  0.0000E+00  0.0000E+00
    -15.120  0.0000E+00  0.0000E+00  0.0000E+00
    -15.017  0.0000E+00  0.0000E+00  0.0000E+00
    -14.914  0.0000E+00  0.0000E+00  0.0000E+00
    -14.812  0.0000E+00  0.0000E+00  0.0000E+00
    -14.709  0.0000E+00  0.0000E+00  0.0000E+00
    -14.606  0.0000E+00  0.0000E+00  0.0000E+00
    -14.504  0.0000E+00  0.0000E+00  0.0000E+00
    -14.401  0.0000E+00  0.0000E+00  0.0000E+00
    -14.298  0.4806E-03  0.7844E-05  0.6950E-06
    -14.196  0.2757E-02  0.1625E-02  0.4099E-04
    -14.093  0.8942E-03  0.6381E-02  0.1991E-03
    -13.990  0.1463E-02  0.4031E-02  0.3325E-03
    -13.888  0.1337E-02  0.4070E-02  0.5829E-03
    -13.785  0.1446E-02  0.3026E-02  0.4630E-03
    -13.682  0.1608E-03  0.4760E-03  0.7030E-04
    -13.580  0.0000E+00  0.0000E+00  0.0000E+00
    -13.477  0.0000E+00  0.0000E+00  0.0000E+00
    -13.374  0.0000E+00  0.0000E+00  0.0000E+00
    -13.272  0.0000E+00  0.0000E+00  0.0000E+00
    -13.169  0.0000E+00  0.0000E+00  0.0000E+00
    -13.066  0.0000E+00  0.0000E+00  0.0000E+00