 vasp.5.4.4.18Apr17-6-g9f103f2a35 (build Jun 29 2021 12:58:12) complex           
 executed on tx2_gcc-7.3_libsci-1 date 2021.09.21  08:32:45
 running on   64 total cores
 distrk:  each k-point on   64 cores,    1 groups
 distr:  one band on NCORES_PER_BAND=   8 cores,    8 groups


--------------------------------------------------------------------------------------------------------


 INCAR:
 POTCAR:    PAW_PBE Cs_sv 08Apr2002               
 POTCAR:    PAW_PBE Pb_d 06Sep2000                
 POTCAR:    PAW_PBE Br 06Sep2000                  
 POTCAR:    PAW_PBE Cs_sv 08Apr2002               
   SHA256 =  c1463496f0f6037ed62c6012a8013a89ee9ad6ffb38599dcd6c079e7ed31779b Cs
   COPYR  = (c) Copyright 08Apr2002 Georg Kresse                                
   COPYR  = This file is part of the software VASP. Any use, copying, and all ot
   COPYR  = If you do not have a valid VASP license, you may not use, copy or di
   VRHFIN =Cs: 5s5p6s                                                           
   LEXCH  = PE                                                                  
   EATOM  =   555.6835 eV,   40.8416 Ry                                         
                                                                                
   TITEL  = PAW_PBE Cs_sv 08Apr2002                                             
   LULTRA =        F    use ultrasoft PP ?                                      
   IUNSCR =        1    unscreen: 0-lin 1-nonlin 2-no                           
   RPACOR =    2.200    partial core radius                                     
   POMASS =  132.900; ZVAL   =    9.000    mass and valenz                      
   RCORE  =    2.500    outmost cutoff radius                                   
   RWIGS  =    2.500; RWIGS  =    1.323    wigner-seitz radius (au A)           
   ENMAX  =  220.318; ENMIN  =  165.238 eV                                      
   RCLOC  =    2.207    cutoff for local pot                                    
   LCOR   =        T    correct aug charges                                     
   LPAW   =        T    paw PP                                                  
   EAUG   =  407.933                                                            
   DEXC   =    0.000                                                            
   RMAX   =    2.554    core radius for proj-oper                               
   RAUG   =    1.300    factor for augmentation sphere                          
   RDEP   =    2.590    radius for radial grids                                 
   RDEPT  =    2.117    core radius for aug-charge                              
                                                                                
   Atomic configuration                                                         
   13 entries                                                                   
     n  l   j            E        occ.                                          
     1  0  0.50    -35790.1377   2.0000                                         
     2  0  0.50     -5613.6201   2.0000                                         
     2  1  1.50     -5035.0101   6.0000                                         
     3  0  0.50     -1167.0767   2.0000                                         
     3  1  1.50      -980.9754   6.0000                                         
     3  2  2.50      -708.0703  10.0000                                         
     4  0  0.50      -220.2386   2.0000                                         
     4  1  1.50      -160.7596   6.0000                                         
     4  2  2.50       -74.2354  10.0000                                         
     5  0  0.50       -26.7287   2.0000                                         
     6  0  0.50        -2.0862   1.0000                                         
     5  1  1.50       -13.5159   6.0000                                         
     5  2  2.50        -0.4136   0.0000                                         
   Description                                                                  
     l       E           TYP  RCUT    TYP  RCUT                                 
     0    -26.7287425     23  1.900                                             
     0     -2.0862306     23  1.900                                             
     1    -13.5158719     23  2.500                                             
     1     -2.7211652     23  2.500                                             
     2     -0.4136171     23  2.500                                             
  local pseudopotential read in
  partial core-charges read in
  partial kinetic energy density read in
  atomic valenz-charges read in
  non local Contribution for L=           0  read in
    real space projection operators read in
  non local Contribution for L=           0  read in
    real space projection operators read in
  non local Contribution for L=           1  read in
    real space projection operators read in
  non local Contribution for L=           1  read in
    real space projection operators read in
  non local Contribution for L=           2  read in
    real space projection operators read in
    PAW grid and wavefunctions read in

   number of l-projection  operators is LMAX  =           5
   number of lm-projection operators is LMMAX =          13

 POTCAR:    PAW_PBE Pb_d 06Sep2000                
   SHA256 =  fb885b08f0fba73a15f6a6b0e39bd200c13ec96ef97cf3ecd8e63bade5137abd Pb
   COPYR  = (c) Copyright 06Sep2000 Georg Kresse                                
   COPYR  = This file is part of the software VASP. Any use, copying, and all ot
   COPYR  = If you do not have a valid VASP license, you may not use, copy or di
   VRHFIN =Pb:                                                                  
   LEXCH  = PE                                                                  
   EATOM  =  1661.6185 eV,  122.1255 Ry                                         
                                                                                
   TITEL  = PAW_PBE Pb_d 06Sep2000                                              
   LULTRA =        F    use ultrasoft PP ?                                      
   IUNSCR =        1    unscreen: 0-lin 1-nonlin 2-no                           
   RPACOR =    2.200    partial core radius                                     
   POMASS =  207.200; ZVAL   =   14.000    mass and valenz                      
   RCORE  =    2.500    outmost cutoff radius                                   
   RWIGS  =    3.260; RWIGS  =    1.725    wigner-seitz radius (au A)           
   ENMAX  =  237.835; ENMIN  =  178.376 eV                                      
   ICORE  =        3    local potential                                         
   LCOR   =        T    correct aug charges                                     
   LPAW   =        T    paw PP                                                  
   EAUG   =  391.914                                                            
   DEXC   =    0.000                                                            
   RMAX   =    2.565    core radius for proj-oper                               
   RAUG   =    1.300    factor for augmentation sphere                          
   RDEP   =    2.643    radius for radial grids                                 
   RDEPT  =    2.092    core radius for aug-charge                              
                                                                                
   Atomic configuration                                                         
   16 entries                                                                   
     n  l   j            E        occ.                                          
     1  0  0.50    -88091.8466   2.0000                                         
     2  0  0.50    -15753.4197   2.0000                                         
     2  1  1.50    -13508.1797   6.0000                                         
     3  0  0.50     -3781.7194   2.0000                                         
     3  1  1.50     -3138.2529   6.0000                                         
     3  2  2.50     -2483.2977  10.0000                                         
     4  0  0.50      -856.2895   2.0000                                         
     4  1  1.50      -645.4942   6.0000                                         
     4  2  2.50      -401.8768  10.0000                                         
     4  3  3.50      -132.9059  14.0000                                         
     5  0  0.50      -144.0950   2.0000                                         
     5  1  1.50       -85.7879   6.0000                                         
     5  2  2.50       -21.1769  10.0000                                         
     6  0  0.50       -12.0372   2.0000                                         
     6  1  1.50        -3.4971   2.0000                                         
     5  3  2.50        -2.7212   0.0000                                         
   Description                                                                  
     l       E           TYP  RCUT    TYP  RCUT                                 
     2    -21.1768523     23  2.500                                             
     2      1.3605826     23  2.500                                             
     0    -12.0371562     23  2.500                                             
     0     13.6058260     23  2.500                                             
     1     -3.4971339     23  2.500                                             
     1     13.6058260     23  2.500                                             
     3     -1.3605826      7  2.500                                             
  local pseudopotential read in
  partial core-charges read in
  partial kinetic energy density read in
  atomic valenz-charges read in
  non local Contribution for L=           2  read in
    real space projection operators read in
  non local Contribution for L=           2  read in
    real space projection operators read in
  non local Contribution for L=           0  read in
    real space projection operators read in
  non local Contribution for L=           0  read in
    real space projection operators read in
  non local Contribution for L=           1  read in
    real space projection operators read in
  non local Contribution for L=           1  read in
    real space projection operators read in
    PAW grid and wavefunctions read in

   number of l-projection  operators is LMAX  =           6
   number of lm-projection operators is LMMAX =          18

 POTCAR:    PAW_PBE Br 06Sep2000                  
   SHA256 =  96a73d2954943bbee26f4990d676cc6c3bf44b8dd2c75cd4b3b825d8403f0103 Br
   COPYR  = (c) Copyright 06Sep2000 Georg Kresse                                
   COPYR  = This file is part of the software VASP. Any use, copying, and all ot
   COPYR  = If you do not have a valid VASP license, you may not use, copy or di
   VRHFIN =Br: s2p5                                                             
   LEXCH  = PE                                                                  
   EATOM  =   368.4488 eV,   27.0802 Ry                                         
                                                                                
   TITEL  = PAW_PBE Br 06Sep2000                                                
   LULTRA =        F    use ultrasoft PP ?                                      
   IUNSCR =        1    unscreen: 0-lin 1-nonlin 2-no                           
   RPACOR =    1.900    partial core radius                                     
   POMASS =   79.904; ZVAL   =    7.000    mass and valenz                      
   RCORE  =    2.100    outmost cutoff radius                                   
   RWIGS  =    2.200; RWIGS  =    1.164    wigner-seitz radius (au A)           
   ENMAX  =  216.285; ENMIN  =  162.214 eV                                      
   ICORE  =        3    local potential                                         
   LCOR   =        T    correct aug charges                                     
   LPAW   =        T    paw PP                                                  
   EAUG   =  503.852                                                            
   DEXC   =    0.000                                                            
   RMAX   =    2.139    core radius for proj-oper                               
   RAUG   =    1.300    factor for augmentation sphere                          
   RDEP   =    2.186    radius for radial grids                                 
   RDEPT  =    1.890    core radius for aug-charge                              
                                                                                
   Atomic configuration                                                         
   10 entries                                                                   
     n  l   j            E        occ.                                          
     1  0  0.50    -13316.2796   2.0000                                         
     2  0  0.50     -1732.8239   2.0000                                         
     2  1  1.50     -1528.2193   6.0000                                         
     3  0  0.50      -238.0460   2.0000                                         
     3  1  1.50      -173.4609   6.0000                                         
     3  2  2.50       -66.7132  10.0000                                         
     4  0  0.50       -20.1334   2.0000                                         
     4  1  0.50        -7.8591   5.0000                                         
     4  2  2.50        -8.1635   0.0000                                         
     4  3  2.50        -8.1635   0.0000                                         
   Description                                                                  
     l       E           TYP  RCUT    TYP  RCUT                                 
     0    -20.1333652     23  2.100                                             
     0    -21.4939478     23  2.100                                             
     1     -7.8591052     23  2.100                                             
     1     -3.1608434     23  2.100                                             
     2     -8.1634956     23  2.100                                             
     3     -1.3605826      7  2.100                                             
  local pseudopotential read in
  partial core-charges read in
  partial kinetic energy density read in
  atomic valenz-charges read in
  non local Contribution for L=           0  read in
    real space projection operators read in
  non local Contribution for L=           0  read in
    real space projection operators read in
  non local Contribution for L=           1  read in
    real space projection operators read in
  non local Contribution for L=           1  read in
    real space projection operators read in
  non local Contribution for L=           2  read in
    real space projection operators read in
    PAW grid and wavefunctions read in

   number of l-projection  operators is LMAX  =           5
   number of lm-projection operators is LMMAX =          13

 Optimization of the real space projectors (new method)

 maximal supplied QI-value         = 15.12
 optimisation between [QCUT,QGAM] = [  8.77, 17.69] = [ 21.53, 87.61] Ry 
 Optimized for a Real-space Cutoff    1.85 Angstroem

   l    n(q)    QCUT    max X(q) W(low)/X(q) W(high)/X(q)  e(spline) 
   0     10     8.768    25.322    0.81E-04    0.51E-04    0.48E-06
   0     10     8.768    99.187    0.78E-04    0.50E-04    0.47E-06
   1      9     8.768    11.761    0.21E-03    0.20E-03    0.37E-06
   1      9     8.768     8.275    0.24E-03    0.22E-03    0.41E-06
   2      9     8.768     3.829    0.23E-04    0.15E-03    0.18E-06
 Optimization of the real space projectors (new method)

 maximal supplied QI-value         = 15.12
 optimisation between [QCUT,QGAM] = [  8.77, 17.69] = [ 21.53, 87.61] Ry 
 Optimized for a Real-space Cutoff    1.59 Angstroem

   l    n(q)    QCUT    max X(q) W(low)/X(q) W(high)/X(q)  e(spline) 
   2      7     8.768     3.846    0.48E-04    0.11E-03    0.11E-06
   2      7     8.768     8.593    0.20E-03    0.22E-04    0.24E-06
   0      8     8.768    20.082    0.68E-04    0.88E-04    0.41E-07
   0      8     8.768     8.597    0.89E-04    0.13E-03    0.59E-07
   1      8     8.768    33.223    0.15E-03    0.53E-04    0.87E-07
   1      8     8.768    15.899    0.14E-03    0.44E-04    0.78E-07
 Optimization of the real space projectors (new method)

 maximal supplied QI-value         = 17.95
 optimisation between [QCUT,QGAM] = [  8.80, 17.59] = [ 21.67, 86.68] Ry 
 Optimized for a Real-space Cutoff    1.59 Angstroem

   l    n(q)    QCUT    max X(q) W(low)/X(q) W(high)/X(q)  e(spline) 
   0      8     8.797   175.082    0.82E-04    0.14E-03    0.89E-07
   0      8     8.797   174.004    0.79E-04    0.14E-03    0.86E-07
   1      8     8.797    54.315    0.16E-03    0.14E-04    0.30E-06
   1      8     8.797    42.441    0.16E-03    0.14E-04    0.30E-06
   2      7     8.797     3.596    0.92E-04    0.15E-03    0.85E-07
  PAW_PBE Cs_sv 08Apr2002               :
 energy of atom  1       EATOM= -555.6835
 kinetic energy error for atom=    0.0069 (will be added to EATOM!!)
  PAW_PBE Pb_d 06Sep2000                :
 energy of atom  2       EATOM=-1661.6185
 kinetic energy error for atom=    0.0498 (will be added to EATOM!!)
  PAW_PBE Br 06Sep2000                  :
 energy of atom  3       EATOM= -368.4488
 kinetic energy error for atom=    0.0072 (will be added to EATOM!!)


 POSCAR: Cs4 Pb4 Br12                            
  positions in direct lattice
  velocities in cartesian coordinates

 METAGGA = SCAN     LMAXTAU =  6    LMIXTAU =  F

 exchange correlation table for  LEXCH =        8
   RHO(1)=    0.500       N(1)  =     2000
   RHO(2)=  100.500       N(2)  =     4000

 VTST: version 3.2, (02/03/18)

 CHAIN: initializing optimizer
 
 OPT: Using VASP Conjugate-Gradient optimizer
 CHAIN: Read ICHAIN            0

 POSCAR: Cs4 Pb4 Br12                            
  positions in direct lattice
  velocities in cartesian coordinates



--------------------------------------------------------------------------------------------------------


 ion  position               nearest neighbor table
   1  0.071  0.250  0.473-
   2  0.429  0.750  0.973-
   3  0.571  0.250  0.027-
   4  0.929  0.750  0.527-
   5  0.000  0.000  0.000-  15 3.00  18 3.00  17 3.01  16 3.01  10 3.03  11 3.03
   6  0.500  0.000  0.500-  16 3.00  17 3.00  15 3.01  18 3.01   9 3.03  12 3.03
   7  0.500  0.500  0.500-  13 3.00  19 3.00  14 3.01  20 3.01   9 3.03  12 3.03
   8  0.000  0.500  0.000-  14 3.00  20 3.00  19 3.01  13 3.01  10 3.03  11 3.03
   9  0.505  0.750  0.445-   6 3.03   7 3.03
  10  0.995  0.250  0.945-   5 3.03   8 3.03
  11  0.005  0.750  0.055-   5 3.03   8 3.03
  12  0.495  0.250  0.555-   6 3.03   7 3.03
  13  0.303  0.467  0.188-   7 3.00   8 3.01
  14  0.197  0.533  0.688-   8 3.00   7 3.01
  15  0.803  0.033  0.312-   5 3.00   6 3.01
  16  0.697  0.967  0.812-   6 3.00   5 3.01
  17  0.303  0.033  0.188-   6 3.00   5 3.01
  18  0.197  0.967  0.688-   5 3.00   6 3.01
  19  0.697  0.533  0.812-   7 3.00   8 3.01
  20  0.803  0.467  0.312-   8 3.00   7 3.01

  LATTYP: Found a simple orthorhombic cell.
 ALAT       =     7.8274888672
 B/A-ratio  =     1.0972124133
 C/A-ratio  =     1.5329416808
  
  Lattice vectors:
  
 A1 = (   0.0000000000,   0.0000000000,   7.8274888672)
 A2 = (  -8.5884179498,   0.0000000000,   0.0000000000)
 A3 = (   0.0000000000, -11.9990839403,   0.0000000000)


Analysis of symmetry for initial positions (statically):
=====================================================================
 Subroutine PRICEL returns:
 Original cell was already a primitive cell.
 

 Routine SETGRP: Setting up the symmetry group for a 
 simple orthorhombic supercell.


 Subroutine GETGRP returns: Found  8 space group operations
 (whereof  2 operations were pure point group operations)
 out of a pool of  8 trial point group operations.


The static configuration has the point symmetry S_2 .
 The point group associated with its full space group is D_2h.


Analysis of symmetry for dynamics (positions and initial velocities):
=====================================================================
 Subroutine PRICEL returns:
 Original cell was already a primitive cell.
 

 Routine SETGRP: Setting up the symmetry group for a 
 simple orthorhombic supercell.


 Subroutine GETGRP returns: Found  8 space group operations
 (whereof  2 operations were pure point group operations)
 out of a pool of  8 trial point group operations.


The dynamic configuration has the point symmetry S_2 .
 The point group associated with its full space group is D_2h.


 Subroutine INISYM returns: Found  8 space group operations
 (whereof  2 operations are pure point group operations),
 and found     1 'primitive' translations



 KPOINTS: 1x1x1                                   

Automatic generation of k-mesh.
Space group operators:
 irot       det(A)        alpha          n_x          n_y          n_z        tau_x        tau_y        tau_z
    1     1.000000     0.000000     1.000000     0.000000     0.000000     0.000000     0.000000     0.000000
    2    -1.000000     0.000000     1.000000     0.000000     0.000000     0.000000     0.000000     0.000000
    3     1.000000   180.000000     0.000000     1.000000     0.000000     0.000000    -0.500000     0.000000
    4    -1.000000   180.000000     0.000000     1.000000     0.000000     0.000000    -0.500000     0.000000
    5     1.000000   180.000000     1.000000     0.000000     0.000000    -0.500000    -0.500000     0.500000
    6    -1.000000   180.000000     1.000000     0.000000     0.000000    -0.500000    -0.500000     0.500000
    7     1.000000   180.000000     0.000000     0.000000     1.000000    -0.500000     0.000000     0.500000
    8    -1.000000   180.000000     0.000000     0.000000     1.000000    -0.500000     0.000000     0.500000
 
 Subroutine IBZKPT returns following result:
 ===========================================
 
 Found      8 irreducible k-points:
 
 Following reciprocal coordinates:
            Coordinates               Weight
  0.000000  0.000000  0.000000      1.000000
  0.333333  0.000000  0.000000      2.000000
  0.000000  0.500000  0.000000      1.000000
  0.333333  0.500000  0.000000      2.000000
  0.000000  0.000000  0.333333      2.000000
  0.333333  0.000000  0.333333      4.000000
  0.000000  0.500000  0.333333      2.000000
  0.333333  0.500000  0.333333      4.000000
 
 Following cartesian coordinates:
            Coordinates               Weight
  0.000000  0.000000  0.000000      1.000000
  0.038812  0.000000  0.000000      2.000000
  0.000000  0.041670  0.000000      1.000000
  0.038812  0.041670  0.000000      2.000000
  0.000000  0.000000  0.042585      2.000000
  0.038812  0.000000  0.042585      4.000000
  0.000000  0.041670  0.042585      2.000000
  0.038812  0.041670  0.042585      4.000000
 


--------------------------------------------------------------------------------------------------------




 Dimension of arrays:
   k-points           NKPTS =      8   k-points in BZ     NKDIM =      8   number of bands    NBANDS=    112
   number of dos      NEDOS =    301   number of ions     NIONS =     20
   non local maximal  LDIM  =      6   non local SUM 2l+1 LMDIM =     18
   total plane-waves  NPLWV = 168000
   max r-space proj   IRMAX =   5555   max aug-charges    IRDMAX=  88649
   dimension x,y,z NGX =    50 NGY =   70 NGZ =   48
   dimension x,y,z NGXF=   100 NGYF=  140 NGZF=   96
   support grid    NGXF=   200 NGYF=  280 NGZF=  192
   ions per type =               4   4  12
   NGX,Y,Z   is equivalent  to a cutoff of   9.68,  9.70, 10.19 a.u.
   NGXF,Y,Z  is equivalent  to a cutoff of  19.36, 19.40, 20.39 a.u.

 SYSTEM =  CsPbBr3 cubic bulk                      
 POSCAR =  Cs4 Pb4 Br12                            

 Startparameter for this run:
   NWRITE =      2    write-flag & timer
   PREC   = accura    normal or accurate (medium, high low for compatibility)
   ISTART =      0    job   : 0-new  1-cont  2-samecut
   ICHARG =      2    charge: 1-file 2-atom 10-const
   ISPIN  =      1    spin polarized calculation?
   LNONCOLLINEAR =      F non collinear calculations
   LSORBIT =      F    spin-orbit coupling
   INIWAV =      1    electr: 0-lowe 1-rand  2-diag
   LASPH  =      T    aspherical Exc in radial PAW
   METAGGA=      F    non-selfconsistent MetaGGA calc.

 Electronic Relaxation 1
   ENCUT  =  300.0 eV  22.05 Ry    4.70 a.u.  12.13 16.95 11.05*2*pi/ulx,y,z
   ENINI  =  300.0     initial cutoff
   ENAUG  =  503.9 eV  augmentation charge cutoff
   NELM   =    200;   NELMIN=  2; NELMDL= -5     # of ELM steps 
   EDIFF  = 0.1E-05   stopping-criterion for ELM
   LREAL  =      T    real-space projection
   NLSPLINE    = F    spline interpolate recip. space projectors
   LCOMPAT=      F    compatible to vasp.4.4
   GGA_COMPAT  = T    GGA compatible to vasp.4.4-vasp.4.6
   LMAXPAW     = -100 max onsite density
   LMAXMIX     =    2 max onsite mixed and CHGCAR
   VOSKOWN=      0    Vosko Wilk Nusair interpolation
   ROPT   =   -0.00025  -0.00025  -0.00025
 Ionic relaxation
   EDIFFG = -.1E-01   stopping-criterion for IOM
   NSW    =      0    number of steps for IOM
   NBLOCK =      1;   KBLOCK =      1    inner block; outer block 
   IBRION =     -1    ionic relax: 0-MD 1-quasi-New 2-CG
   NFREE  =      1    steps in history (QN), initial steepest desc. (CG)
   ISIF   =      3    stress and relaxation
   IWAVPR =     10    prediction:  0-non 1-charg 2-wave 3-comb
   ISYM   =      2    0-nonsym 1-usesym 2-fastsym
   LCORR  =      T    Harris-Foulkes like correction to forces

   POTIM  = 0.5000    time-step for ionic-motion
   TEIN   =    0.0    initial temperature
   TEBEG  =    0.0;   TEEND  =   0.0 temperature during run
   SMASS  =  -3.00    Nose mass-parameter (am)
   estimated Nose-frequenzy (Omega)   =  0.10E-29 period in steps =****** mass=  -0.169E-26a.u.
   SCALEE = 1.0000    scale energy and forces
   NPACO  =    256;   APACO  = 16.0  distance and # of slots for P.C.
   PSTRESS=    0.0 pullay stress

  Mass of Ions in am
   POMASS = 132.90207.20 79.90
  Ionic Valenz
   ZVAL   =   9.00 14.00  7.00
  Atomic Wigner-Seitz radii
   RWIGS  =  -1.00 -1.00 -1.00
  virtual crystal weights 
   VCA    =   1.00  1.00  1.00
   NELECT =     176.0000    total number of electrons
   NUPDOWN=      -1.0000    fix difference up-down

 DOS related values:
   EMIN   =  10.00;   EMAX   =-10.00  energy-range for DOS
   EFERMI =   0.00
   ISMEAR =     0;   SIGMA  =   0.01  broadening in eV -4-tet -1-fermi 0-gaus

 Electronic relaxation 2 (details)
   IALGO  =     38    algorithm
   LDIAG  =      T    sub-space diagonalisation (order eigenvalues)
   LSUBROT=      F    optimize rotation matrix (better conditioning)
   TURBO    =      0    0=normal 1=particle mesh
   IRESTART =      0    0=no restart 2=restart with 2 vectors
   NREBOOT  =      0    no. of reboots
   NMIN     =      0    reboot dimension
   EREF     =   0.00    reference energy to select bands
   IMIX   =      4    mixing-type and parameters
     AMIX     =   0.40;   BMIX     =  1.00
     AMIX_MAG =   1.60;   BMIX_MAG =  1.00
     AMIN     =   0.10
     WC   =   100.;   INIMIX=   1;  MIXPRE=   1;  MAXMIX= -45

 Intra band minimization:
   WEIMIN = 0.0000     energy-eigenvalue tresh-hold
   EBREAK =  0.22E-08  absolut break condition
   DEPER  =   0.30     relativ break condition  

   TIME   =   0.40     timestep for ELM

  volume/ion in A,a.u.               =      40.33       272.18
  Fermi-wavevector in a.u.,A,eV,Ry     =   0.985563  1.862444 13.215813  0.971335
  Thomas-Fermi vector in A             =   2.116879

 Write flags
   LWAVE        =      F    write WAVECAR
   LDOWNSAMPLE  =      F    k-point downsampling of WAVECAR
   LCHARG       =      F    write CHGCAR
   LVTOT        =      F    write LOCPOT, total local potential
   LVHAR        =      T    write LOCPOT, Hartree potential only
   LELF         =      F    write electronic localiz. function (ELF)
   LORBIT       =     10    0 simple, 1 ext, 2 COOP (PROOUT), +10 PAW based schemes


 Dipole corrections
   LMONO  =      F    monopole corrections only (constant potential shift)
   LDIPOL =      F    correct potential (dipole corrections)
   IDIPOL =      0    1-x, 2-y, 3-z, 4-all directions 
   EPSILON=  1.0000000 bulk dielectric constant

 Exchange correlation treatment:
   GGA     =    --    GGA type
   LEXCH   =     8    internal setting for exchange type
   VOSKOWN=      0    Vosko Wilk Nusair interpolation
   LHFCALC =     F    Hartree Fock is set to
   LHFONE  =     F    Hartree Fock one center treatment
   AEXX    =    0.0000 exact exchange contribution

 Linear response parameters
   LEPSILON=     F    determine dielectric tensor
   LRPA    =     F    only Hartree local field effects (RPA)
   LNABLA  =     F    use nabla operator in PAW spheres
   LVEL    =     F    velocity operator in full k-point grid
   LINTERFAST=   F  fast interpolation
   KINTER  =     0    interpolate to denser k-point grid
   CSHIFT  =0.1000    complex shift for real part using Kramers Kronig
   OMEGAMAX=  -1.0    maximum frequency
   DEG_THRESHOLD= 0.2000000E-02 threshold for treating states as degnerate
   RTIME   =   -0.100 relaxation time in fs
  (WPLASMAI=    0.000 imaginary part of plasma frequency in eV, 0.658/RTIME)
   DFIELD  = 0.0000000 0.0000000 0.0000000 field for delta impulse in time

 Orbital magnetization related:
   ORBITALMAG=     F  switch on orbital magnetization
   LCHIMAG   =     F  perturbation theory with respect to B field
   DQ        =  0.001000  dq finite difference perturbation B field
   LLRAUG    =     F  two centre corrections for induced B field



--------------------------------------------------------------------------------------------------------


 Static calculation
 charge density and potential will be updated during run
 non-spin polarized calculation
 Variant of blocked Davidson
 Davidson routine will perform the subspace rotation
 perform sub-space diagonalisation
    after iterative eigenvector-optimisation
 modified Broyden-mixing scheme, WC =      100.0
 initial mixing is a Kerker type mixing with AMIX =  0.4000 and BMIX =      1.0000
 Hartree-type preconditioning will be used
 using additional bands           24
 real space projection scheme for non local part
 use partial core corrections
 calculate Harris-corrections to forces   (improved forces if not selfconsistent)
 use gradient corrections 
 use of overlap-Matrix (Vanderbilt PP)
 Gauss-broadening in eV      SIGMA  =   0.01


--------------------------------------------------------------------------------------------------------


  energy-cutoff  :      300.00
  volume of cell :      806.65
      direct lattice vectors                 reciprocal lattice vectors
     8.588417950  0.000000000  0.000000000     0.116435880  0.000000000  0.000000000
     0.000000000 11.999083940  0.000000000     0.000000000  0.083339695  0.000000000
     0.000000000  0.000000000  7.827488867     0.000000000  0.000000000  0.127754893

  length of vectors
     8.588417950 11.999083940  7.827488867     0.116435880  0.083339695  0.127754893



 k-points in units of 2pi/SCALE and weight: 1x1x1                                   
   0.00000000  0.00000000  0.00000000       0.056
   0.03881196  0.00000000  0.00000000       0.111
   0.00000000  0.04166985  0.00000000       0.056
   0.03881196  0.04166985  0.00000000       0.111
   0.00000000  0.00000000  0.04258496       0.111
   0.03881196  0.00000000  0.04258496       0.222
   0.00000000  0.04166985  0.04258496       0.111
   0.03881196  0.04166985  0.04258496       0.222

 k-points in reciprocal lattice and weights: 1x1x1                                   
   0.00000000  0.00000000  0.00000000       0.056
   0.33333333  0.00000000  0.00000000       0.111
   0.00000000  0.50000000  0.00000000       0.056
   0.33333333  0.50000000  0.00000000       0.111
   0.00000000  0.00000000  0.33333333       0.111
   0.33333333  0.00000000  0.33333333       0.222
   0.00000000  0.50000000  0.33333333       0.111
   0.33333333  0.50000000  0.33333333       0.222

 position of ions in fractional coordinates (direct lattice) 
   0.07104659  0.25000000  0.47268179
   0.42895341  0.75000000  0.97268179
   0.57104659  0.25000000  0.02731821
   0.92895341  0.75000000  0.52731821
   0.00000000  0.00000000  0.00000000
   0.50000000  0.00000000  0.50000000
   0.50000000  0.50000000  0.50000000
   0.00000000  0.50000000  0.00000000
   0.50539215  0.75000000  0.44454394
   0.99460785  0.25000000  0.94454394
   0.00539215  0.75000000  0.05545606
   0.49460785  0.25000000  0.55545606
   0.30290059  0.46730933  0.18751356
   0.19709941  0.53269067  0.68751356
   0.80290059  0.03269067  0.31248644
   0.69709941  0.96730933  0.81248644
   0.30290059  0.03269067  0.18751356
   0.19709941  0.96730933  0.68751356
   0.69709941  0.53269067  0.81248644
   0.80290059  0.46730933  0.31248644

 position of ions in cartesian coordinates  (Angst):
   0.61017782  2.99977099  3.69991141
   3.68403115  8.99931296  7.61365585
   4.90438680  2.99977099  0.21383302
   7.97824013  8.99931296  4.12757746
   0.00000000  0.00000000  0.00000000
   4.29420897  0.00000000  3.91374443
   4.29420897  5.99954197  3.91374443
   0.00000000  5.99954197  0.00000000
   4.34051898  8.99931296  3.47966276
   8.54210795  2.99977099  7.39340719
   0.04631000  8.99931296  0.43408168
   4.24789897  2.99977099  4.34782611
   2.60143684  5.60728393  1.46776029
   1.69277213  6.39180001  5.38150473
   6.89564581  0.39225804  2.44598414
   5.98698111 11.60682590  6.35972857
   2.60143684  0.39225804  1.46776029
   1.69277213 11.60682590  5.38150473
   5.98698111  6.39180001  6.35972857
   6.89564581  5.60728393  2.44598414



--------------------------------------------------------------------------------------------------------


 k-point  1 :   0.0000 0.0000 0.0000  plane waves:    9503
 k-point  2 :   0.3333 0.0000 0.0000  plane waves:    9504
 k-point  3 :   0.0000 0.5000 0.0000  plane waves:    9498
 k-point  4 :   0.3333 0.5000 0.0000  plane waves:    9514
 k-point  5 :   0.0000 0.0000 0.3333  plane waves:    9498
 k-point  6 :   0.3333 0.0000 0.3333  plane waves:    9538
 k-point  7 :   0.0000 0.5000 0.3333  plane waves:    9516
 k-point  8 :   0.3333 0.5000 0.3333  plane waves:    9530

 maximum and minimum number of plane-waves per node :      1211     1156

 maximum number of plane-waves:      9538
 maximum index in each direction: 
   IXMAX=   12   IYMAX=   16   IZMAX=   11
   IXMIN=  -12   IYMIN=  -17   IZMIN=  -11


 real space projection operators:
  total allocation   :       8286.38 KBytes
  max/ min on nodes  :       1158.03        953.16


 parallel 3D FFT for wavefunctions:
    minimum data exchange during FFTs selected (reduces bandwidth)
 parallel 3D FFT for charge:
    minimum data exchange during FFTs selected (reduces bandwidth)


 total amount of memory used by VASP MPI-rank0    43696. kBytes
=======================================================================

   base      :      30000. kBytes
   nonlr-proj:       3301. kBytes
   fftplans  :       4446. kBytes
   grid      :       3667. kBytes
   one-center:         46. kBytes
   wavefun   :       2236. kBytes

     INWAV:  cpu time    0.0000: real time    0.0000
 Broyden mixing: mesh for mixing (old mesh)
   NGX = 25   NGY = 33   NGZ = 23
  (NGX  =100   NGY  =140   NGZ  = 96)
  gives a total of  18975 points

 initial charge density was supplied:
 charge density of overlapping atoms calculated
 number of electron     176.0000000 magnetization 
 keeping initial charge density in first step


--------------------------------------------------------------------------------------------------------


 Maximum index for non-local projection operator          940
 Maximum index for augmentation-charges         4570 (set IRDMAX)


--------------------------------------------------------------------------------------------------------


 First call to EWALD:  gamma=   0.190
 Maximum number of real-space cells 3x 2x 3
 Maximum number of reciprocal cells 3x 3x 2

    FEWALD:  cpu time    0.0022: real time    0.0022


--------------------------------------- Iteration      1(   1)  ---------------------------------------


    POTLOK:  cpu time    0.1268: real time    0.1347
    SETDIJ:  cpu time    1.0904: real time    1.0905
     EDDAV:  cpu time    4.3190: real time    4.3234
       DOS:  cpu time    0.0007: real time    0.0007
    --------------------------------------------
      LOOP:  cpu time    5.5369: real time    5.5493

 eigenvalue-minimisations  :  1832
 total energy-change (2. order) : 0.6672105E+03  (-0.5611223E+04)
 number of electron     176.0000000 magnetization 
 augmentation part      176.0000000 magnetization 

 Free energy of the ion-electron system (eV)
  ---------------------------------------------------
  alpha Z        PSCENC =       447.29450331
  Ewald energy   TEWEN  =     -9215.85919509
  -Hartree energ DENC   =     -3660.61929644
  -exchange      EXHF   =         0.00000000
  -V(xc)+E(xc)   XCENC  =       461.82165597
  PAW double counting   =     10816.98087266   -11353.96092700
  entropy T*S    EENTRO =        -0.00099868
  eigenvalues    EBANDS =      -118.72616646
  atomic energy  EATOM  =     13290.28009929
  Solvation  Ediel_sol  =         0.00000000
  ---------------------------------------------------
  free energy    TOTEN  =       667.21054755 eV

  energy without entropy =      667.21154623  energy(sigma->0) =      667.21104689


--------------------------------------------------------------------------------------------------------




--------------------------------------- Iteration      1(   2)  ---------------------------------------


     EDDAV:  cpu time    4.8910: real time    4.9130
       DOS:  cpu time    0.0003: real time    0.0003
    --------------------------------------------
      LOOP:  cpu time    4.8913: real time    4.9132

 eigenvalue-minimisations  :  2192
 total energy-change (2. order) :-0.1241194E+04  (-0.1185328E+04)
 number of electron     176.0000000 magnetization 
 augmentation part      176.0000000 magnetization 

 Free energy of the ion-electron system (eV)
  ---------------------------------------------------
  alpha Z        PSCENC =       447.29450331
  Ewald energy   TEWEN  =     -9215.85919509
  -Hartree energ DENC   =     -3660.61929644
  -exchange      EXHF   =         0.00000000
  -V(xc)+E(xc)   XCENC  =       461.82165597
  PAW double counting   =     10816.98087266   -11353.96092700
  entropy T*S    EENTRO =        -0.00000000
  eigenvalues    EBANDS =     -1359.92114504
  atomic energy  EATOM  =     13290.28009929
  Solvation  Ediel_sol  =         0.00000000
  ---------------------------------------------------
  free energy    TOTEN  =      -573.98343234 eV

  energy without entropy =     -573.98343234  energy(sigma->0) =     -573.98343234


--------------------------------------------------------------------------------------------------------




--------------------------------------- Iteration      1(   3)  ---------------------------------------


     EDDAV:  cpu time    5.2096: real time    5.2212
       DOS:  cpu time    0.0003: real time    0.0003
    --------------------------------------------
      LOOP:  cpu time    5.2099: real time    5.2215

 eigenvalue-minimisations  :  2432
 total energy-change (2. order) :-0.1749667E+03  (-0.1738531E+03)
 number of electron     176.0000000 magnetization 
 augmentation part      176.0000000 magnetization 

 Free energy of the ion-electron system (eV)
  ---------------------------------------------------
  alpha Z        PSCENC =       447.29450331
  Ewald energy   TEWEN  =     -9215.85919509
  -Hartree energ DENC   =     -3660.61929644
  -exchange      EXHF   =         0.00000000
  -V(xc)+E(xc)   XCENC  =       461.82165597
  PAW double counting   =     10816.98087266   -11353.96092700
  entropy T*S    EENTRO =        -0.00000000
  eigenvalues    EBANDS =     -1534.88788216
  atomic energy  EATOM  =     13290.28009929
  Solvation  Ediel_sol  =         0.00000000
  ---------------------------------------------------
  free energy    TOTEN  =      -748.95016947 eV

  energy without entropy =     -748.95016947  energy(sigma->0) =     -748.95016947


--------------------------------------------------------------------------------------------------------




--------------------------------------- Iteration      1(   4)  ---------------------------------------


     EDDAV:  cpu time    4.8224: real time    4.8270
       DOS:  cpu time    0.0003: real time    0.0003
    --------------------------------------------
      LOOP:  cpu time    4.8227: real time    4.8273

 eigenvalue-minimisations  :  2136
 total energy-change (2. order) :-0.5607640E+01  (-0.5589397E+01)
 number of electron     176.0000000 magnetization 
 augmentation part      176.0000000 magnetization 

 Free energy of the ion-electron system (eV)
  ---------------------------------------------------
  alpha Z        PSCENC =       447.29450331
  Ewald energy   TEWEN  =     -9215.85919509
  -Hartree energ DENC   =     -3660.61929644
  -exchange      EXHF   =         0.00000000
  -V(xc)+E(xc)   XCENC  =       461.82165597
  PAW double counting   =     10816.98087266   -11353.96092700
  entropy T*S    EENTRO =        -0.00000000
  eigenvalues    EBANDS =     -1540.49552247
  atomic energy  EATOM  =     13290.28009929
  Solvation  Ediel_sol  =         0.00000000
  ---------------------------------------------------
  free energy    TOTEN  =      -754.55780977 eV

  energy without entropy =     -754.55780977  energy(sigma->0) =     -754.55780977


--------------------------------------------------------------------------------------------------------




--------------------------------------- Iteration      1(   5)  ---------------------------------------


     EDDAV:  cpu time    5.1169: real time    5.1677
       DOS:  cpu time    0.0004: real time    0.0004
    CHARGE:  cpu time    0.9553: real time    0.9553
    MIXING:  cpu time    0.0008: real time    0.0008
    --------------------------------------------
      LOOP:  cpu time    6.0734: real time    6.1243

 eigenvalue-minimisations  :  2376
 total energy-change (2. order) :-0.2623204E+00  (-0.2621424E+00)
 number of electron     176.0000000 magnetization 
 augmentation part       -3.2384114 magnetization 

 Broyden mixing:
  rms(total) = 0.69751E+00    rms(broyden)= 0.69729E+00
  rms(prec ) = 0.96807E+00
  weight for this iteration     100.00

 Free energy of the ion-electron system (eV)
  ---------------------------------------------------
  alpha Z        PSCENC =       447.29450331
  Ewald energy   TEWEN  =     -9215.85919509
  -Hartree energ DENC   =     -3660.61929644
  -exchange      EXHF   =         0.00000000
  -V(xc)+E(xc)   XCENC  =       461.82165597
  PAW double counting   =     10816.98087266   -11353.96092700
  entropy T*S    EENTRO =        -0.00000000
  eigenvalues    EBANDS =     -1540.75784291
  atomic energy  EATOM  =     13290.28009929
  Solvation  Ediel_sol  =         0.00000000
  ---------------------------------------------------
  free energy    TOTEN  =      -754.82013022 eV

  energy without entropy =     -754.82013022  energy(sigma->0) =     -754.82013022


--------------------------------------------------------------------------------------------------------




--------------------------------------- Iteration      1(   6)  ---------------------------------------


    POTLOK:  cpu time    0.1229: real time    0.1787
    SETDIJ:  cpu time    1.0917: real time    1.0918
     EDDAV:  cpu time    5.0807: real time    5.0809
       DOS:  cpu time    0.0003: real time    0.0003
    CHARGE:  cpu time    0.9184: real time    0.9185
    MIXING:  cpu time    0.0009: real time    0.0009
    --------------------------------------------
      LOOP:  cpu time    7.2149: real time    7.2710

 eigenvalue-minimisations  :  2376
 total energy-change (2. order) : 0.3984594E+02  (-0.1186668E+01)
 number of electron     176.0000000 magnetization 
 augmentation part       -2.5134189 magnetization 

 Broyden mixing:
  rms(total) = 0.49773E+00    rms(broyden)= 0.49768E+00
  rms(prec ) = 0.61779E+00
  weight for this iteration     100.00

 eigenvalues of (default mixing * dielectric matrix)
  average eigenvalue GAMMA=   1.1480
  1.1480

 Free energy of the ion-electron system (eV)
  ---------------------------------------------------
  alpha Z        PSCENC =       447.29450331
  Ewald energy   TEWEN  =     -9215.85919509
  -Hartree energ DENC   =     -3650.36058760
  -exchange      EXHF   =         0.00000000
  -V(xc)+E(xc)   XCENC  =       477.20904928
  PAW double counting   =     10954.06148738   -11490.03538351
  entropy T*S    EENTRO =        -0.00000000
  eigenvalues    EBANDS =     -1527.56416129
  atomic energy  EATOM  =     13290.28009929
  Solvation  Ediel_sol  =         0.00000000
  ---------------------------------------------------
  free energy    TOTEN  =      -714.97418824 eV

  energy without entropy =     -714.97418824  energy(sigma->0) =     -714.97418824


--------------------------------------------------------------------------------------------------------




--------------------------------------- Iteration      1(   7)  ---------------------------------------


    POTLOK:  cpu time    0.1311: real time    0.1616
    SETDIJ:  cpu time    1.0918: real time    1.0918
     EDDAV:  cpu time    4.9217: real time    4.9220
       DOS:  cpu time    0.0003: real time    0.0003
    CHARGE:  cpu time    0.9153: real time    0.9153
    MIXING:  cpu time    0.0009: real time    0.0009
    --------------------------------------------
      LOOP:  cpu time    7.0610: real time    7.0920

 eigenvalue-minimisations  :  2264
 total energy-change (2. order) : 0.2346377E+00  (-0.3888180E+00)
 number of electron     176.0000000 magnetization 
 augmentation part       -2.2497038 magnetization 

 Broyden mixing:
  rms(total) = 0.25915E+00    rms(broyden)= 0.25914E+00
  rms(prec ) = 0.28385E+00
  weight for this iteration     100.00

 eigenvalues of (default mixing * dielectric matrix)
  average eigenvalue GAMMA=   1.3137
  1.3137  1.3137

 Free energy of the ion-electron system (eV)
  ---------------------------------------------------
  alpha Z        PSCENC =       447.29450331
  Ewald energy   TEWEN  =     -9215.85919509
  -Hartree energ DENC   =     -3669.59816225
  -exchange      EXHF   =         0.00000000
  -V(xc)+E(xc)   XCENC  =       479.81255935
  PAW double counting   =     11252.75658356   -11787.74514552
  entropy T*S    EENTRO =        -0.00000000
  eigenvalues    EBANDS =     -1511.68079316
  atomic energy  EATOM  =     13290.28009929
  Solvation  Ediel_sol  =         0.00000000
  ---------------------------------------------------
  free energy    TOTEN  =      -714.73955051 eV

  energy without entropy =     -714.73955051  energy(sigma->0) =     -714.73955051


--------------------------------------------------------------------------------------------------------




--------------------------------------- Iteration      1(   8)  ---------------------------------------


    POTLOK:  cpu time    0.1534: real time    0.1808
    SETDIJ:  cpu time    1.0925: real time    1.0925
     EDDAV:  cpu time    4.7450: real time    4.7452
       DOS:  cpu time    0.0007: real time    0.0007
    CHARGE:  cpu time    0.9182: real time    0.9182
    MIXING:  cpu time    0.0009: real time    0.0010
    --------------------------------------------
      LOOP:  cpu time    6.9108: real time    6.9384

 eigenvalue-minimisations  :  2144
 total energy-change (2. order) :-0.9562479E-01  (-0.1833514E-01)
 number of electron     176.0000000 magnetization 
 augmentation part       -2.2928188 magnetization 

 Broyden mixing:
  rms(total) = 0.14807E+00    rms(broyden)= 0.14807E+00
  rms(prec ) = 0.16396E+00
  weight for this iteration     100.00

 eigenvalues of (default mixing * dielectric matrix)
  average eigenvalue GAMMA=   1.7085
  1.1139  1.2965  2.7152

 Free energy of the ion-electron system (eV)
  ---------------------------------------------------
  alpha Z        PSCENC =       447.29450331
  Ewald energy   TEWEN  =     -9215.85919509
  -Hartree energ DENC   =     -3671.68563036
  -exchange      EXHF   =         0.00000000
  -V(xc)+E(xc)   XCENC  =       480.20114158
  PAW double counting   =     11371.50840466   -11906.63635573
  entropy T*S    EENTRO =        -0.00000000
  eigenvalues    EBANDS =     -1509.93814295
  atomic energy  EATOM  =     13290.28009929
  Solvation  Ediel_sol  =         0.00000000
  ---------------------------------------------------
  free energy    TOTEN  =      -714.83517530 eV

  energy without entropy =     -714.83517530  energy(sigma->0) =     -714.83517530


--------------------------------------------------------------------------------------------------------




--------------------------------------- Iteration      1(   9)  ---------------------------------------


    POTLOK:  cpu time    0.1487: real time    0.1571
    SETDIJ:  cpu time    1.0927: real time    1.0927
     EDDAV:  cpu time    4.4475: real time    4.4478
       DOS:  cpu time    0.0005: real time    0.0005
    CHARGE:  cpu time    0.9161: real time    0.9162
    MIXING:  cpu time    0.0009: real time    0.0009
    --------------------------------------------
      LOOP:  cpu time    6.6063: real time    6.6152

 eigenvalue-minimisations  :  1936
 total energy-change (2. order) :-0.4054823E-01  (-0.8616326E-02)
 number of electron     176.0000000 magnetization 
 augmentation part       -2.3145797 magnetization 

 Broyden mixing:
  rms(total) = 0.32386E-01    rms(broyden)= 0.32384E-01
  rms(prec ) = 0.34733E-01
  weight for this iteration     100.00

 eigenvalues of (default mixing * dielectric matrix)
  average eigenvalue GAMMA=   1.4632
  2.5477  1.2406  1.2406  0.8241

 Free energy of the ion-electron system (eV)
  ---------------------------------------------------
  alpha Z        PSCENC =       447.29450331
  Ewald energy   TEWEN  =     -9215.85919509
  -Hartree energ DENC   =     -3674.13970180
  -exchange      EXHF   =         0.00000000
  -V(xc)+E(xc)   XCENC  =       481.18591652
  PAW double counting   =     11539.69623016   -12075.17120794
  entropy T*S    EENTRO =        -0.00000000
  eigenvalues    EBANDS =     -1508.16236797
  atomic energy  EATOM  =     13290.28009929
  Solvation  Ediel_sol  =         0.00000000
  ---------------------------------------------------
  free energy    TOTEN  =      -714.87572353 eV

  energy without entropy =     -714.87572353  energy(sigma->0) =     -714.87572353


--------------------------------------------------------------------------------------------------------




--------------------------------------- Iteration      1(  10)  ---------------------------------------


    POTLOK:  cpu time    0.1530: real time    0.2000
    SETDIJ:  cpu time    1.0934: real time    1.0934
     EDDAV:  cpu time    5.4530: real time    5.4532
       DOS:  cpu time    0.0003: real time    0.0003
    CHARGE:  cpu time    0.9173: real time    0.9173
    MIXING:  cpu time    0.0012: real time    0.0012
    --------------------------------------------
      LOOP:  cpu time    7.6182: real time    7.6655

 eigenvalue-minimisations  :  2632
 total energy-change (2. order) :-0.9715061E-03  (-0.5355093E-03)
 number of electron     176.0000000 magnetization 
 augmentation part       -2.3079017 magnetization 

 Broyden mixing:
  rms(total) = 0.18738E-01    rms(broyden)= 0.18737E-01
  rms(prec ) = 0.20892E-01
  weight for this iteration     100.00

 eigenvalues of (default mixing * dielectric matrix)
  average eigenvalue GAMMA=   1.5962
  2.4384  2.4384  1.1302  1.1302  0.8440

 Free energy of the ion-electron system (eV)
  ---------------------------------------------------
  alpha Z        PSCENC =       447.29450331
  Ewald energy   TEWEN  =     -9215.85919509
  -Hartree energ DENC   =     -3673.23252047
  -exchange      EXHF   =         0.00000000
  -V(xc)+E(xc)   XCENC  =       481.08184025
  PAW double counting   =     11522.60820114   -12058.12992074
  entropy T*S    EENTRO =        -0.00000000
  eigenvalues    EBANDS =     -1508.91970273
  atomic energy  EATOM  =     13290.28009929
  Solvation  Ediel_sol  =         0.00000000
  ---------------------------------------------------
  free energy    TOTEN  =      -714.87669504 eV

  energy without entropy =     -714.87669504  energy(sigma->0) =     -714.87669504


--------------------------------------------------------------------------------------------------------




--------------------------------------- Iteration      1(  11)  ---------------------------------------


    POTLOK:  cpu time    0.1338: real time    0.1493
    SETDIJ:  cpu time    1.0951: real time    1.0951
     EDDAV:  cpu time    4.4629: real time    4.4631
       DOS:  cpu time    0.0004: real time    0.0004
    CHARGE:  cpu time    0.9203: real time    0.9204
    MIXING:  cpu time    0.0010: real time    0.0010
    --------------------------------------------
      LOOP:  cpu time    6.6134: real time    6.6292

 eigenvalue-minimisations  :  1952
 total energy-change (2. order) :-0.1618222E-02  (-0.1831420E-03)
 number of electron     176.0000000 magnetization 
 augmentation part       -2.3077130 magnetization 

 Broyden mixing:
  rms(total) = 0.67283E-02    rms(broyden)= 0.67280E-02
  rms(prec ) = 0.82380E-02
  weight for this iteration     100.00

 eigenvalues of (default mixing * dielectric matrix)
  average eigenvalue GAMMA=   1.5789
  2.6077  2.6077  1.2195  1.2195  0.9096  0.9096

 Free energy of the ion-electron system (eV)
  ---------------------------------------------------
  alpha Z        PSCENC =       447.29450331
  Ewald energy   TEWEN  =     -9215.85919509
  -Hartree energ DENC   =     -3671.85685252
  -exchange      EXHF   =         0.00000000
  -V(xc)+E(xc)   XCENC  =       481.02914834
  PAW double counting   =     11508.41892037   -12044.11453015
  entropy T*S    EENTRO =        -0.00000000
  eigenvalues    EBANDS =     -1510.07040680
  atomic energy  EATOM  =     13290.28009929
  Solvation  Ediel_sol  =         0.00000000
  ---------------------------------------------------
  free energy    TOTEN  =      -714.87831326 eV

  energy without entropy =     -714.87831326  energy(sigma->0) =     -714.87831326


--------------------------------------------------------------------------------------------------------




--------------------------------------- Iteration      1(  12)  ---------------------------------------


    POTLOK:  cpu time    0.1411: real time    0.1738
    SETDIJ:  cpu time    1.0948: real time    1.0948
     EDDAV:  cpu time    4.8174: real time    4.8176
       DOS:  cpu time    0.0004: real time    0.0004
    CHARGE:  cpu time    0.9163: real time    0.9164
    MIXING:  cpu time    0.0010: real time    0.0010
    --------------------------------------------
      LOOP:  cpu time    6.9710: real time    7.0040

 eigenvalue-minimisations  :  2192
 total energy-change (2. order) :-0.6080238E-04  (-0.4677913E-04)
 number of electron     176.0000000 magnetization 
 augmentation part       -2.3094389 magnetization 

 Broyden mixing:
  rms(total) = 0.23029E-02    rms(broyden)= 0.23025E-02
  rms(prec ) = 0.26382E-02
  weight for this iteration     100.00

 eigenvalues of (default mixing * dielectric matrix)
  average eigenvalue GAMMA=   1.6298
  3.0705  2.2851  1.9130  1.1801  0.9492  0.9492  1.0617

 Free energy of the ion-electron system (eV)
  ---------------------------------------------------
  alpha Z        PSCENC =       447.29450331
  Ewald energy   TEWEN  =     -9215.85919509
  -Hartree energ DENC   =     -3672.00767003
  -exchange      EXHF   =         0.00000000
  -V(xc)+E(xc)   XCENC  =       481.08790588
  PAW double counting   =     11513.36316775   -12049.10525402
  entropy T*S    EENTRO =        -0.00000000
  eigenvalues    EBANDS =     -1509.93193114
  atomic energy  EATOM  =     13290.28009929
  Solvation  Ediel_sol  =         0.00000000
  ---------------------------------------------------
  free energy    TOTEN  =      -714.87837406 eV

  energy without entropy =     -714.87837406  energy(sigma->0) =     -714.87837406


--------------------------------------------------------------------------------------------------------




--------------------------------------- Iteration      1(  13)  ---------------------------------------


    POTLOK:  cpu time    0.1290: real time    0.1734
    SETDIJ:  cpu time    1.0955: real time    1.0955
     EDDAV:  cpu time    4.7973: real time    4.7975
       DOS:  cpu time    0.0004: real time    0.0004
    CHARGE:  cpu time    0.9167: real time    0.9167
    MIXING:  cpu time    0.0012: real time    0.0012
    --------------------------------------------
      LOOP:  cpu time    6.9400: real time    6.9847

 eigenvalue-minimisations  :  2184
 total energy-change (2. order) : 0.7183243E-05  (-0.5001039E-05)
 number of electron     176.0000000 magnetization 
 augmentation part       -2.3094301 magnetization 

 Broyden mixing:
  rms(total) = 0.75160E-03    rms(broyden)= 0.75105E-03
  rms(prec ) = 0.81717E-03
  weight for this iteration     100.00

 eigenvalues of (default mixing * dielectric matrix)
  average eigenvalue GAMMA=   1.6335
  2.9799  2.4634  2.1137  1.2970  1.2970  0.9458  0.9857  0.9857

 Free energy of the ion-electron system (eV)
  ---------------------------------------------------
  alpha Z        PSCENC =       447.29450331
  Ewald energy   TEWEN  =     -9215.85919509
  -Hartree energ DENC   =     -3672.17192218
  -exchange      EXHF   =         0.00000000
  -V(xc)+E(xc)   XCENC  =       481.10229894
  PAW double counting   =     11512.38219706   -12048.12838380
  entropy T*S    EENTRO =        -0.00000000
  eigenvalues    EBANDS =     -1509.77796440
  atomic energy  EATOM  =     13290.28009929
  Solvation  Ediel_sol  =         0.00000000
  ---------------------------------------------------
  free energy    TOTEN  =      -714.87836688 eV

  energy without entropy =     -714.87836688  energy(sigma->0) =     -714.87836688


--------------------------------------------------------------------------------------------------------




--------------------------------------- Iteration      1(  14)  ---------------------------------------


    POTLOK:  cpu time    0.1257: real time    0.1829
    SETDIJ:  cpu time    1.0939: real time    1.0939
     EDDAV:  cpu time    4.3479: real time    4.3481
       DOS:  cpu time    0.0004: real time    0.0004
    CHARGE:  cpu time    0.9167: real time    0.9167
    MIXING:  cpu time    0.0011: real time    0.0011
    --------------------------------------------
      LOOP:  cpu time    6.4857: real time    6.5430

 eigenvalue-minimisations  :  1848
 total energy-change (2. order) :-0.1671526E-04  (-0.3601738E-06)
 number of electron     176.0000000 magnetization 
 augmentation part       -2.3092174 magnetization 

 Broyden mixing:
  rms(total) = 0.24053E-03    rms(broyden)= 0.23899E-03
  rms(prec ) = 0.28045E-03
  weight for this iteration     100.00

 eigenvalues of (default mixing * dielectric matrix)
  average eigenvalue GAMMA=   1.6428
  2.8463  2.6810  2.1241  1.9997  1.1244  1.1244  0.9831  0.9831  0.9188

 Free energy of the ion-electron system (eV)
  ---------------------------------------------------
  alpha Z        PSCENC =       447.29450331
  Ewald energy   TEWEN  =     -9215.85919509
  -Hartree energ DENC   =     -3672.18443550
  -exchange      EXHF   =         0.00000000
  -V(xc)+E(xc)   XCENC  =       481.10216273
  PAW double counting   =     11511.93945243   -12047.68558615
  entropy T*S    EENTRO =        -0.00000000
  eigenvalues    EBANDS =     -1509.76538461
  atomic energy  EATOM  =     13290.28009929
  Solvation  Ediel_sol  =         0.00000000
  ---------------------------------------------------
  free energy    TOTEN  =      -714.87838359 eV

  energy without entropy =     -714.87838359  energy(sigma->0) =     -714.87838359


--------------------------------------------------------------------------------------------------------




--------------------------------------- Iteration      1(  15)  ---------------------------------------


    POTLOK:  cpu time    0.1477: real time    0.1744
    SETDIJ:  cpu time    1.0937: real time    1.0937
     EDDAV:  cpu time    3.5887: real time    3.5888
       DOS:  cpu time    0.0003: real time    0.0003
    --------------------------------------------
      LOOP:  cpu time    4.8304: real time    4.8572

 eigenvalue-minimisations  :  1304
 total energy-change (2. order) :-0.2913462E-06  (-0.8525370E-07)
 number of electron     176.0000000 magnetization 
 augmentation part       -2.3092174 magnetization 

 Free energy of the ion-electron system (eV)
  ---------------------------------------------------
  alpha Z        PSCENC =       447.29450331
  Ewald energy   TEWEN  =     -9215.85919509
  -Hartree energ DENC   =     -3672.17360498
  -exchange      EXHF   =         0.00000000
  -V(xc)+E(xc)   XCENC  =       481.10131162
  PAW double counting   =     11511.95896093   -12047.70233287
  entropy T*S    EENTRO =        -0.00000000
  eigenvalues    EBANDS =     -1509.77812610
  atomic energy  EATOM  =     13290.28009929
  Solvation  Ediel_sol  =         0.00000000
  ---------------------------------------------------
  free energy    TOTEN  =      -714.87838389 eV

  energy without entropy =     -714.87838389  energy(sigma->0) =     -714.87838389


--------------------------------------------------------------------------------------------------------




 average (electrostatic) potential at core
  the test charge radii are     1.1312  1.1541  1.0178
  (the norm of the test charge is              1.0000)
       1 -55.2752       2 -55.2752       3 -55.2752       4 -55.2752       5-101.7222
       6-101.7222       7-101.7222       8-101.7222       9 -68.9900      10 -68.9900
      11 -68.9900      12 -68.9900      13 -68.9964      14 -68.9964      15 -68.9964
      16 -68.9964      17 -68.9964      18 -68.9964      19 -68.9964      20 -68.9964



 E-fermi :   0.4096     XC(G=0):  -8.0578     alpha+bet : -7.0173


 k-point     1 :       0.0000    0.0000    0.0000
  band No.  band energies     occupation 
      1     -20.8042      2.00000
      2     -20.8027      2.00000
      3     -20.8001      2.00000
      4     -20.7990      2.00000
      5     -16.5223      2.00000
      6     -16.5196      2.00000
      7     -16.5195      2.00000
      8     -16.4964      2.00000
      9     -16.4765      2.00000
     10     -16.4457      2.00000
     11     -16.4359      2.00000
     12     -16.4358      2.00000
     13     -16.3887      2.00000
     14     -16.3882      2.00000
     15     -16.3877      2.00000
     16     -16.3871      2.00000
     17     -16.3760      2.00000
     18     -16.3757      2.00000
     19     -16.3752      2.00000
     20     -16.3746      2.00000
     21     -16.3676      2.00000
     22     -16.3674      2.00000
     23     -16.3667      2.00000
     24     -16.3663      2.00000
     25     -14.3304      2.00000
     26     -14.1750      2.00000
     27     -14.0401      2.00000
     28     -14.0317      2.00000
     29     -14.0102      2.00000
     30     -14.0004      2.00000
     31     -13.9749      2.00000
     32     -13.9732      2.00000
     33     -13.9535      2.00000
     34     -13.7626      2.00000
     35     -13.7535      2.00000
     36     -13.7518      2.00000
     37      -8.1693      2.00000
     38      -7.7181      2.00000
     39      -7.2543      2.00000
     40      -7.2337      2.00000
     41      -7.2322      2.00000
     42      -7.2163      2.00000
     43      -7.2132      2.00000
     44      -7.2125      2.00000
     45      -7.2020      2.00000
     46      -7.1896      2.00000
     47      -7.1895      2.00000
     48      -7.1843      2.00000
     49      -7.1834      2.00000
     50      -7.1701      2.00000
     51      -7.1413      2.00000
     52      -6.6105      2.00000
     53      -3.3168      2.00000
     54      -3.2737      2.00000
     55      -3.2007      2.00000
     56      -3.1833      2.00000
     57      -3.1346      2.00000
     58      -2.9933      2.00000
     59      -2.1593      2.00000
     60      -1.9322      2.00000
     61      -1.9150      2.00000
     62      -1.8562      2.00000
     63      -1.8276      2.00000
     64      -1.6854      2.00000
     65      -1.6178      2.00000
     66      -1.5665      2.00000
     67      -1.5328      2.00000
     68      -1.5219      2.00000
     69      -1.4470      2.00000
     70      -1.4469      2.00000
     71      -1.4380      2.00000
     72      -1.4371      2.00000
     73      -1.4091      2.00000
     74      -1.3808      2.00000
     75      -1.3361      2.00000
     76      -1.3210      2.00000
     77      -1.3200      2.00000
     78      -1.1591      2.00000
     79      -1.1554      2.00000
     80      -1.0962      2.00000
     81      -1.0868      2.00000
     82      -1.0062      2.00000
     83      -0.9914      2.00000
     84      -0.9803      2.00000
     85      -0.8183      2.00000
     86      -0.6550      2.00000
     87      -0.1923      2.00000
     88       0.3387      2.00000
     89       2.6205      0.00000
     90       2.6491      0.00000
     91       2.9615      0.00000
     92       3.0597      0.00000
     93       3.3314      0.00000
     94       3.3793      0.00000
     95       4.8899      0.00000
     96       5.4314      0.00000
     97       5.7085      0.00000
     98       5.8851      0.00000
     99       5.9749      0.00000
    100       5.9948      0.00000
    101       6.0912      0.00000
    102       6.1454      0.00000
    103       6.1757      0.00000
    104       6.3280      0.00000
    105       6.4033      0.00000
    106       6.4170      0.00000
    107       6.5752      0.00000
    108       6.7228      0.00000
    109       6.9068      0.00000
    110       6.9996      0.00000
    111       7.0720      0.00000
    112       7.0832      0.00000

 k-point     2 :       0.3333    0.0000    0.0000
  band No.  band energies     occupation 
      1     -20.8031      2.00000
      2     -20.8018      2.00000
      3     -20.8011      2.00000
      4     -20.8000      2.00000
      5     -16.5157      2.00000
      6     -16.5030      2.00000
      7     -16.4996      2.00000
      8     -16.4994      2.00000
      9     -16.4686      2.00000
     10     -16.4577      2.00000
     11     -16.4577      2.00000
     12     -16.4532      2.00000
     13     -16.3886      2.00000
     14     -16.3883      2.00000
     15     -16.3875      2.00000
     16     -16.3873      2.00000
     17     -16.3759      2.00000
     18     -16.3755      2.00000
     19     -16.3754      2.00000
     20     -16.3749      2.00000
     21     -16.3674      2.00000
     22     -16.3672      2.00000
     23     -16.3669      2.00000
     24     -16.3666      2.00000
     25     -14.2847      2.00000
     26     -14.1623      2.00000
     27     -14.1416      2.00000
     28     -14.0700      2.00000
     29     -14.0056      2.00000
     30     -14.0022      2.00000
     31     -13.9207      2.00000
     32     -13.9186      2.00000
     33     -13.8571      2.00000
     34     -13.8096      2.00000
     35     -13.8072      2.00000
     36     -13.7844      2.00000
     37      -7.9622      2.00000
     38      -7.5086      2.00000
     39      -7.4899      2.00000
     40      -7.2578      2.00000
     41      -7.2279      2.00000
     42      -7.2253      2.00000
     43      -7.2136      2.00000
     44      -7.2088      2.00000
     45      -7.2037      2.00000
     46      -7.1943      2.00000
     47      -7.1883      2.00000
     48      -7.1745      2.00000
     49      -7.1734      2.00000
     50      -7.1703      2.00000
     51      -7.1554      2.00000
     52      -6.9464      2.00000
     53      -3.1938      2.00000
     54      -3.1001      2.00000
     55      -2.9321      2.00000
     56      -2.8147      2.00000
     57      -2.7802      2.00000
     58      -2.7602      2.00000
     59      -2.2453      2.00000
     60      -2.1080      2.00000
     61      -2.1060      2.00000
     62      -1.9873      2.00000
     63      -1.9839      2.00000
     64      -1.9711      2.00000
     65      -1.7831      2.00000
     66      -1.6745      2.00000
     67      -1.6630      2.00000
     68      -1.6211      2.00000
     69      -1.4752      2.00000
     70      -1.4659      2.00000
     71      -1.4249      2.00000
     72      -1.4227      2.00000
     73      -1.3471      2.00000
     74      -1.3421      2.00000
     75      -1.3391      2.00000
     76      -1.3052      2.00000
     77      -1.2500      2.00000
     78      -1.2277      2.00000
     79      -1.2090      2.00000
     80      -1.1001      2.00000
     81      -1.0987      2.00000
     82      -1.0732      2.00000
     83      -1.0129      2.00000
     84      -0.9941      2.00000
     85      -0.7794      2.00000
     86      -0.6518      2.00000
     87      -0.5312      2.00000
     88      -0.1439      2.00000
     89       2.7896      0.00000
     90       3.1358      0.00000
     91       3.3957      0.00000
     92       3.7506      0.00000
     93       3.8268      0.00000
     94       4.1778      0.00000
     95       4.8525      0.00000
     96       5.1873      0.00000
     97       5.2123      0.00000
     98       5.2169      0.00000
     99       5.6280      0.00000
    100       5.7864      0.00000
    101       5.9930      0.00000
    102       6.1994      0.00000
    103       6.3888      0.00000
    104       6.3926      0.00000
    105       6.4257      0.00000
    106       6.4303      0.00000
    107       6.5502      0.00000
    108       6.6735      0.00000
    109       6.9342      0.00000
    110       7.0110      0.00000
    111       7.0439      0.00000
    112       7.1845      0.00000

 k-point     3 :       0.0000    0.5000    0.0000
  band No.  band energies     occupation 
      1     -20.8034      2.00000
      2     -20.8034      2.00000
      3     -20.7996      2.00000
      4     -20.7996      2.00000
      5     -16.5196      2.00000
      6     -16.5196      2.00000
      7     -16.4997      2.00000
      8     -16.4997      2.00000
      9     -16.4714      2.00000
     10     -16.4714      2.00000
     11     -16.4358      2.00000
     12     -16.4358      2.00000
     13     -16.3882      2.00000
     14     -16.3882      2.00000
     15     -16.3876      2.00000
     16     -16.3876      2.00000
     17     -16.3758      2.00000
     18     -16.3758      2.00000
     19     -16.3748      2.00000
     20     -16.3748      2.00000
     21     -16.3675      2.00000
     22     -16.3675      2.00000
     23     -16.3665      2.00000
     24     -16.3665      2.00000
     25     -14.2777      2.00000
     26     -14.2777      2.00000
     27     -14.0359      2.00000
     28     -14.0359      2.00000
     29     -13.9782      2.00000
     30     -13.9782      2.00000
     31     -13.9765      2.00000
     32     -13.9765      2.00000
     33     -13.8569      2.00000
     34     -13.8569      2.00000
     35     -13.7526      2.00000
     36     -13.7526      2.00000
     37      -7.9595      2.00000
     38      -7.9595      2.00000
     39      -7.2443      2.00000
     40      -7.2443      2.00000
     41      -7.2272      2.00000
     42      -7.2272      2.00000
     43      -7.2020      2.00000
     44      -7.2020      2.00000
     45      -7.1936      2.00000
     46      -7.1936      2.00000
     47      -7.1854      2.00000
     48      -7.1854      2.00000
     49      -7.1766      2.00000
     50      -7.1766      2.00000
     51      -6.9278      2.00000
     52      -6.9278      2.00000
     53      -3.2756      2.00000
     54      -3.2756      2.00000
     55      -3.1558      2.00000
     56      -3.1558      2.00000
     57      -2.4622      2.00000
     58      -2.4622      2.00000
     59      -2.2891      2.00000
     60      -2.2891      2.00000
     61      -2.0408      2.00000
     62      -2.0408      2.00000
     63      -1.7958      2.00000
     64      -1.7958      2.00000
     65      -1.7561      2.00000
     66      -1.7561      2.00000
     67      -1.5293      2.00000
     68      -1.5293      2.00000
     69      -1.4637      2.00000
     70      -1.4637      2.00000
     71      -1.4352      2.00000
     72      -1.4352      2.00000
     73      -1.3460      2.00000
     74      -1.3460      2.00000
     75      -1.3193      2.00000
     76      -1.3193      2.00000
     77      -1.2107      2.00000
     78      -1.2107      2.00000
     79      -1.1786      2.00000
     80      -1.1786      2.00000
     81      -1.1175      2.00000
     82      -1.1175      2.00000
     83      -1.0173      2.00000
     84      -1.0173      2.00000
     85      -0.8212      2.00000
     86      -0.8212      2.00000
     87      -0.0762      2.00000
     88      -0.0762      2.00000
     89       2.8578      0.00000
     90       2.8578      0.00000
     91       3.1685      0.00000
     92       3.1685      0.00000
     93       4.1344      0.00000
     94       4.1344      0.00000
     95       4.7021      0.00000
     96       4.7021      0.00000
     97       5.4969      0.00000
     98       5.4969      0.00000
     99       5.8118      0.00000
    100       5.8118      0.00000
    101       6.1018      0.00000
    102       6.1018      0.00000
    103       6.2062      0.00000
    104       6.2062      0.00000
    105       6.4063      0.00000
    106       6.4063      0.00000
    107       6.7183      0.00000
    108       6.7183      0.00000
    109       6.8563      0.00000
    110       6.8566      0.00000
    111       6.9716      0.00000
    112       7.0021      0.00000

 k-point     4 :       0.3333    0.5000    0.0000
  band No.  band energies     occupation 
      1     -20.8025      2.00000
      2     -20.8025      2.00000
      3     -20.8005      2.00000
      4     -20.8005      2.00000
      5     -16.4996      2.00000
      6     -16.4996      2.00000
      7     -16.4925      2.00000
      8     -16.4925      2.00000
      9     -16.4782      2.00000
     10     -16.4782      2.00000
     11     -16.4577      2.00000
     12     -16.4577      2.00000
     13     -16.3881      2.00000
     14     -16.3881      2.00000
     15     -16.3878      2.00000
     16     -16.3878      2.00000
     17     -16.3756      2.00000
     18     -16.3756      2.00000
     19     -16.3752      2.00000
     20     -16.3752      2.00000
     21     -16.3672      2.00000
     22     -16.3672      2.00000
     23     -16.3668      2.00000
     24     -16.3668      2.00000
     25     -14.2371      2.00000
     26     -14.2371      2.00000
     27     -14.1331      2.00000
     28     -14.1331      2.00000
     29     -13.9228      2.00000
     30     -13.9228      2.00000
     31     -13.9123      2.00000
     32     -13.9123      2.00000
     33     -13.8675      2.00000
     34     -13.8675      2.00000
     35     -13.8083      2.00000
     36     -13.8083      2.00000
     37      -7.7515      2.00000
     38      -7.7515      2.00000
     39      -7.2918      2.00000
     40      -7.2918      2.00000
     41      -7.2302      2.00000
     42      -7.2302      2.00000
     43      -7.2273      2.00000
     44      -7.2273      2.00000
     45      -7.1946      2.00000
     46      -7.1946      2.00000
     47      -7.1848      2.00000
     48      -7.1848      2.00000
     49      -7.1823      2.00000
     50      -7.1823      2.00000
     51      -7.1375      2.00000
     52      -7.1375      2.00000
     53      -2.8810      2.00000
     54      -2.8810      2.00000
     55      -2.8376      2.00000
     56      -2.8376      2.00000
     57      -2.4067      2.00000
     58      -2.4067      2.00000
     59      -2.3802      2.00000
     60      -2.3802      2.00000
     61      -2.1750      2.00000
     62      -2.1750      2.00000
     63      -2.0539      2.00000
     64      -2.0539      2.00000
     65      -1.7397      2.00000
     66      -1.7397      2.00000
     67      -1.6709      2.00000
     68      -1.6709      2.00000
     69      -1.5603      2.00000
     70      -1.5603      2.00000
     71      -1.5043      2.00000
     72      -1.5043      2.00000
     73      -1.3989      2.00000
     74      -1.3989      2.00000
     75      -1.3391      2.00000
     76      -1.3391      2.00000
     77      -1.1423      2.00000
     78      -1.1423      2.00000
     79      -1.1337      2.00000
     80      -1.1337      2.00000
     81      -1.0933      2.00000
     82      -1.0933      2.00000
     83      -1.0574      2.00000
     84      -1.0574      2.00000
     85      -0.7721      2.00000
     86      -0.7721      2.00000
     87      -0.5542      2.00000
     88      -0.5542      2.00000
     89       3.5624      0.00000
     90       3.5624      0.00000
     91       3.9750      0.00000
     92       3.9750      0.00000
     93       4.2704      0.00000
     94       4.2704      0.00000
     95       4.5393      0.00000
     96       4.5393      0.00000
     97       4.9997      0.00000
     98       4.9997      0.00000
     99       5.3080      0.00000
    100       5.3080      0.00000
    101       6.0001      0.00000
    102       6.0001      0.00000
    103       6.3026      0.00000
    104       6.3026      0.00000
    105       6.6410      0.00000
    106       6.6410      0.00000
    107       6.6929      0.00000
    108       6.6929      0.00000
    109       6.7328      0.00000
    110       6.7328      0.00000
    111       6.8677      0.00000
    112       6.8677      0.00000

 k-point     5 :       0.0000    0.0000    0.3333
  band No.  band energies     occupation 
      1     -20.8033      2.00000
      2     -20.8022      2.00000
      3     -20.8005      2.00000
      4     -20.7997      2.00000
      5     -16.5156      2.00000
      6     -16.5030      2.00000
      7     -16.4997      2.00000
      8     -16.4995      2.00000
      9     -16.4684      2.00000
     10     -16.4581      2.00000
     11     -16.4580      2.00000
     12     -16.4532      2.00000
     13     -16.3886      2.00000
     14     -16.3882      2.00000
     15     -16.3877      2.00000
     16     -16.3873      2.00000
     17     -16.3760      2.00000
     18     -16.3755      2.00000
     19     -16.3754      2.00000
     20     -16.3749      2.00000
     21     -16.3675      2.00000
     22     -16.3671      2.00000
     23     -16.3670      2.00000
     24     -16.3666      2.00000
     25     -14.2763      2.00000
     26     -14.1351      2.00000
     27     -14.1287      2.00000
     28     -14.0287      2.00000
     29     -14.0047      2.00000
     30     -14.0035      2.00000
     31     -13.9690      2.00000
     32     -13.9614      2.00000
     33     -13.8460      2.00000
     34     -13.8222      2.00000
     35     -13.8217      2.00000
     36     -13.7805      2.00000
     37      -7.9578      2.00000
     38      -7.5019      2.00000
     39      -7.4742      2.00000
     40      -7.2350      2.00000
     41      -7.2225      2.00000
     42      -7.2167      2.00000
     43      -7.2162      2.00000
     44      -7.1983      2.00000
     45      -7.1967      2.00000
     46      -7.1908      2.00000
     47      -7.1869      2.00000
     48      -7.1794      2.00000
[...]
     60      -2.3745      2.00000
     61      -2.2014      2.00000
     62      -2.2014      2.00000
     63      -1.9982      2.00000
     64      -1.9982      2.00000
     65      -1.7046      2.00000
     66      -1.7046      2.00000
     67      -1.6695      2.00000
     68      -1.6695      2.00000
     69      -1.5152      2.00000
     70      -1.5152      2.00000
     71      -1.4821      2.00000
     72      -1.4821      2.00000
     73      -1.3534      2.00000
     74      -1.3534      2.00000
     75      -1.3332      2.00000
     76      -1.3332      2.00000
     77      -1.1959      2.00000
     78      -1.1959      2.00000
     79      -1.1406      2.00000
     80      -1.1406      2.00000
     81      -1.1351      2.00000
     82      -1.1351      2.00000
     83      -1.0863      2.00000
     84      -1.0863      2.00000
     85      -0.8977      2.00000
     86      -0.8977      2.00000
     87      -0.6716      2.00000
     88      -0.6716      2.00000
     89       3.6855      0.00000
     90       3.6855      0.00000
     91       3.8558      0.00000
     92       3.8558      0.00000
     93       4.2518      0.00000
     94       4.2518      0.00000
     95       4.5641      0.00000
     96       4.5641      0.00000
     97       5.0561      0.00000
     98       5.0561      0.00000
     99       5.2780      0.00000
    100       5.2780      0.00000
    101       6.0168      0.00000
    102       6.0168      0.00000
    103       6.2269      0.00000
    104       6.2269      0.00000
    105       6.4777      0.00000
    106       6.4777      0.00000
    107       6.5819      0.00000
    108       6.5819      0.00000
    109       6.8653      0.00000
    110       6.8653      0.00000
    111       7.1307      0.00000
    112       7.1321      0.00000

 k-point     8 :       0.3333    0.5000    0.3333
  band No.  band energies     occupation 
      1     -20.8021      2.00000
      2     -20.8021      2.00000
      3     -20.8008      2.00000
      4     -20.8008      2.00000
      5     -16.5071      2.00000
      6     -16.5071      2.00000
      7     -16.4943      2.00000
      8     -16.4943      2.00000
      9     -16.4712      2.00000
     10     -16.4712      2.00000
     11     -16.4561      2.00000
     12     -16.4561      2.00000
     13     -16.3880      2.00000
     14     -16.3880      2.00000
     15     -16.3879      2.00000
     16     -16.3879      2.00000
     17     -16.3755      2.00000
     18     -16.3755      2.00000
     19     -16.3753      2.00000
     20     -16.3753      2.00000
     21     -16.3671      2.00000
     22     -16.3671      2.00000
     23     -16.3669      2.00000
     24     -16.3669      2.00000
     25     -14.1857      2.00000
     26     -14.1857      2.00000
     27     -14.0959      2.00000
     28     -14.0959      2.00000
     29     -14.0195      2.00000
     30     -14.0195      2.00000
     31     -13.9333      2.00000
     32     -13.9333      2.00000
     33     -13.8443      2.00000
     34     -13.8443      2.00000
     35     -13.8152      2.00000
     36     -13.8152      2.00000
     37      -7.6180      2.00000
     38      -7.6180      2.00000
     39      -7.3761      2.00000
     40      -7.3761      2.00000
     41      -7.2215      2.00000
     42      -7.2215      2.00000
     43      -7.2034      2.00000
     44      -7.2034      2.00000
     45      -7.1898      2.00000
     46      -7.1898      2.00000
     47      -7.1856      2.00000
     48      -7.1856      2.00000
     49      -7.1756      2.00000
     50      -7.1756      2.00000
     51      -7.1548      2.00000
     52      -7.1548      2.00000
     53      -3.1291      2.00000
     54      -3.1291      2.00000
     55      -2.7732      2.00000
     56      -2.7732      2.00000
     57      -2.4791      2.00000
     58      -2.4791      2.00000
     59      -2.3736      2.00000
     60      -2.3736      2.00000
     61      -2.1545      2.00000
     62      -2.1545      2.00000
     63      -1.9890      2.00000
     64      -1.9890      2.00000
     65      -1.7474      2.00000
     66      -1.7474      2.00000
     67      -1.6770      2.00000
     68      -1.6770      2.00000
     69      -1.5059      2.00000
     70      -1.5059      2.00000
     71      -1.4116      2.00000
     72      -1.4116      2.00000
     73      -1.3615      2.00000
     74      -1.3615      2.00000
     75      -1.2663      2.00000
     76      -1.2663      2.00000
     77      -1.2228      2.00000
     78      -1.2228      2.00000
     79      -1.1561      2.00000
     80      -1.1561      2.00000
     81      -1.1061      2.00000
     82      -1.1061      2.00000
     83      -1.0621      2.00000
     84      -1.0621      2.00000
     85      -0.8372      2.00000
     86      -0.8372      2.00000
     87      -0.5988      2.00000
     88      -0.5988      2.00000
     89       3.2312      0.00000
     90       3.2312      0.00000
     91       3.9998      0.00000
     92       3.9998      0.00000
     93       4.3201      0.00000
     94       4.3201      0.00000
     95       4.4407      0.00000
     96       4.4407      0.00000
     97       5.0261      0.00000
     98       5.0261      0.00000
     99       5.7118      0.00000
    100       5.7118      0.00000
    101       6.2826      0.00000
    102       6.2826      0.00000
    103       6.3935      0.00000
    104       6.3935      0.00000
    105       6.6066      0.00000
    106       6.6066      0.00000
    107       6.7735      0.00000
    108       6.7735      0.00000
    109       6.8329      0.00000
    110       6.8329      0.00000
    111       7.0221      0.00000
    112       7.0222      0.00000


--------------------------------------------------------------------------------------------------------


 soft charge-density along one line, spin component           1
         0         1         2         3         4         5         6         7         8         9
 total charge-density along one line

 pseudopotential strength for first ion, spin component:           1
 17.970  -4.704  -0.000  -0.001  -0.001   0.000   0.001   0.001
 -4.704   1.240   0.000   0.000   0.000  -0.000  -0.000  -0.000
 -0.000   0.000   2.264  -0.000   0.000  -2.708   0.000  -0.000
 -0.001   0.000  -0.000   2.265  -0.001   0.000  -2.709   0.001
 -0.001   0.000   0.000  -0.001   2.265  -0.000   0.001  -2.709
  0.000  -0.000  -2.708   0.000  -0.000   3.206  -0.000   0.000
  0.001  -0.000   0.000  -2.709   0.001  -0.000   3.208  -0.001
  0.001  -0.000  -0.000   0.001  -2.709   0.000  -0.001   3.207
  0.000  -0.000   0.000  -0.000   0.000  -0.000   0.000  -0.000
 -0.000   0.000   0.000  -0.000  -0.000  -0.000   0.000   0.000
  0.001  -0.000   0.000  -0.001   0.001  -0.000   0.002  -0.001
 -0.001   0.000  -0.000  -0.000   0.000   0.000   0.000  -0.000
  0.000  -0.000   0.000  -0.000  -0.002  -0.000   0.000   0.002
 total augmentation occupancy for first ion, spin component:           1
  1.910  -0.142   0.000  -0.000  -0.000   0.000  -0.000  -0.001  -0.000   0.000   0.001  -0.001   0.000
 -0.142   0.117   0.000  -0.003  -0.003   0.000   0.001   0.002  -0.000   0.000  -0.002   0.004   0.001
  0.000   0.000   2.015   0.000   0.000   0.002   0.000   0.000   0.001   0.001   0.000   0.000   0.000
 -0.000  -0.003   0.000   2.018  -0.002   0.000   0.005  -0.002  -0.000   0.000  -0.004  -0.001   0.000
 -0.000  -0.003   0.000  -0.002   2.017   0.000  -0.002   0.003   0.000   0.000   0.001   0.001  -0.003
  0.000   0.000   0.002   0.000   0.000   0.008   0.000   0.000  -0.001  -0.001   0.000   0.000   0.000
 -0.000   0.001   0.000   0.005  -0.002   0.000   0.007   0.001   0.000   0.000   0.002  -0.000   0.000
 -0.001   0.002   0.000  -0.002   0.003   0.000   0.001   0.009   0.000   0.000  -0.001  -0.001   0.002
 -0.000  -0.000   0.001  -0.000   0.000  -0.001   0.000   0.000   0.006   0.002   0.000   0.000   0.000
  0.000   0.000   0.001   0.000   0.000  -0.001   0.000   0.000   0.002   0.004   0.000   0.000   0.000
  0.001  -0.002   0.000  -0.004   0.001   0.000   0.002  -0.001   0.000   0.000   0.005  -0.002  -0.001
 -0.001   0.004   0.000  -0.001   0.001   0.000  -0.000  -0.001   0.000   0.000  -0.002   0.003   0.001
  0.000   0.001   0.000   0.000  -0.003   0.000   0.000   0.002   0.000   0.000  -0.001   0.001   0.005


------------------------ aborting loop because EDIFF is reached ----------------------------------------





 total charge     

# of ion       s       p       d       tot
------------------------------------------
    1        1.785   4.719   0.018   6.522
    2        1.785   4.719   0.018   6.522
    3        1.785   4.719   0.018   6.522
    4        1.785   4.719   0.018   6.522
    5        1.553   0.414   9.832  11.798
    6        1.553   0.413   9.832  11.798
    7        1.553   0.413   9.832  11.798
    8        1.553   0.414   9.832  11.798
    9        1.613   3.283   0.005   4.901
   10        1.613   3.283   0.005   4.902
   11        1.613   3.283   0.005   4.902
   12        1.613   3.283   0.005   4.901
   13        1.615   3.270   0.006   4.892
   14        1.614   3.292   0.006   4.912
   15        1.614   3.292   0.006   4.912
   16        1.615   3.270   0.006   4.892
   17        1.615   3.270   0.006   4.892
   18        1.614   3.292   0.006   4.912
   19        1.615   3.270   0.006   4.892
   20        1.614   3.292   0.006   4.912
--------------------------------------------------
tot         32.719  59.910  39.469 132.098

    CHARGE:  cpu time    0.1412: real time    0.1412
    FORLOC:  cpu time    0.0037: real time    0.0037
    FORNL :  cpu time    0.6223: real time    0.6223
    STRESS:  cpu time   13.7803: real time   13.7809
    FORCOR:  cpu time    0.1029: real time    0.1029
    FORHAR:  cpu time    0.0110: real time    0.0110
    MIXING:  cpu time    0.0011: real time    0.0011
    OFIELD:  cpu time    0.0000: real time    0.0000

  FORCE on cell =-STRESS in cart. coord.  units (eV):
  Direction    XX          YY          ZZ          XY          YZ          ZX
  --------------------------------------------------------------------------------------
  Alpha Z   447.29450   447.29450   447.29450
  Ewald   -2989.20452 -3049.83808 -3176.84118    -0.00000    -0.00000    -0.00000
  Hartree  1285.25040  1223.53283  1163.39901    -0.00000    -0.00000    -0.00000
  E(xc)    -738.59044  -738.72420  -738.66814    -0.00000    -0.00000    -0.03000
  Local   -1560.73879 -1437.37066 -1253.97298     0.00000     0.00000     0.00000
  n-local   899.69988   897.90894   898.35397    -0.00000     0.00000     0.02220
  augment   406.93503   406.35140   406.03094     0.00000    -0.00002     0.00001
  Kinetic  2247.10618  2247.29261  2253.82862    -0.00001    -0.00002    -1.52091
  Fock        0.00000     0.00000     0.00000     0.00000     0.00000     0.00000
  -------------------------------------------------------------------------------------
  Total      -2.24777    -3.55267    -0.57525     0.00000     0.00000     0.00000
  in kB      -4.46456    -7.05637    -1.14257     0.00000     0.00000     0.00000
  external pressure =       -4.22 kB  Pullay stress =        0.00 kB


 VOLUME and BASIS-vectors are now :
 -----------------------------------------------------------------------------
  energy-cutoff  :      300.00
  volume of cell :      806.65
      direct lattice vectors                 reciprocal lattice vectors
     8.588417950  0.000000000  0.000000000     0.116435880  0.000000000  0.000000000
     0.000000000 11.999083940  0.000000000     0.000000000  0.083339695  0.000000000
     0.000000000  0.000000000  7.827488867     0.000000000  0.000000000  0.127754893

  length of vectors
     8.588417950 11.999083940  7.827488867     0.116435880  0.083339695  0.127754893


 FORCES acting on ions
    electron-ion (+dipol)            ewald-force                    non-local-force                 convergence-correction
 -----------------------------------------------------------------------------------------------
   0.267E+02 0.162E-12 -.188E+02   -.266E+02 0.000E+00 0.188E+02   -.104E+00 0.000E+00 -.635E-01   -.137E-03 0.438E-13 0.339E-03
   -.267E+02 0.435E-12 -.188E+02   0.266E+02 0.000E+00 0.188E+02   0.104E+00 -.132E-22 -.635E-01   0.137E-03 -.385E-15 0.339E-03
   0.267E+02 0.175E-11 0.188E+02   -.266E+02 0.711E-14 -.188E+02   -.104E+00 0.662E-23 0.635E-01   -.137E-03 0.340E-13 -.339E-03
   -.267E+02 0.228E-11 0.188E+02   0.266E+02 -.142E-13 -.188E+02   0.104E+00 0.000E+00 0.635E-01   0.137E-03 0.892E-14 -.339E-03
   0.349E-13 -.525E-15 0.289E-13   -.711E-14 0.711E-14 0.000E+00   0.000E+00 0.000E+00 0.995E-23   0.172E-12 -.440E-12 -.355E-13
   0.118E-11 -.241E-12 0.476E-11   -.355E-13 0.497E-13 0.000E+00   0.000E+00 0.000E+00 0.202E-22   0.129E-12 -.461E-12 0.484E-13
   -.827E-12 -.443E-11 0.170E-11   0.142E-13 0.249E-13 0.711E-14   0.000E+00 0.000E+00 -.171E-22   0.127E-12 0.387E-12 0.554E-13
   0.316E-14 0.118E-11 0.405E-13   0.142E-13 0.711E-14 0.213E-13   0.000E+00 0.000E+00 -.102E-22   0.177E-12 0.383E-12 -.552E-13
   0.106E+02 0.167E-12 0.350E+02   -.107E+02 -.284E-13 -.352E+02   0.114E+00 0.000E+00 0.160E+00   -.885E-04 -.272E-13 -.319E-03
   -.106E+02 -.135E-11 0.350E+02   0.107E+02 0.284E-13 -.352E+02   -.114E+00 0.000E+00 0.160E+00   0.885E-04 0.167E-13 -.319E-03
   0.106E+02 0.295E-12 -.350E+02   -.107E+02 0.284E-13 0.352E+02   0.114E+00 0.000E+00 -.160E+00   -.885E-04 -.647E-13 0.319E-03
   -.106E+02 -.389E-11 -.350E+02   0.107E+02 -.284E-13 0.352E+02   -.114E+00 0.000E+00 -.160E+00   0.885E-04 -.117E-13 0.319E-03
   -.220E+02 0.158E+02 0.298E+02   0.222E+02 -.160E+02 -.301E+02   -.199E+00 0.157E+00 0.274E+00   -.275E-04 0.688E-04 -.609E-04
   0.220E+02 -.158E+02 0.298E+02   -.222E+02 0.160E+02 -.301E+02   0.199E+00 -.157E+00 0.274E+00   0.275E-04 -.688E-04 -.609E-04
   -.220E+02 -.158E+02 -.298E+02   0.222E+02 0.160E+02 0.301E+02   -.199E+00 -.157E+00 -.274E+00   -.275E-04 -.688E-04 0.609E-04
   0.220E+02 0.158E+02 -.298E+02   -.222E+02 -.160E+02 0.301E+02   0.199E+00 0.157E+00 -.274E+00   0.275E-04 0.688E-04 0.609E-04
   -.220E+02 -.158E+02 0.298E+02   0.222E+02 0.160E+02 -.301E+02   -.199E+00 -.157E+00 0.274E+00   -.275E-04 -.688E-04 -.609E-04
   0.220E+02 0.158E+02 0.298E+02   -.222E+02 -.160E+02 -.301E+02   0.199E+00 0.157E+00 0.274E+00   0.275E-04 0.688E-04 -.609E-04
   0.220E+02 -.158E+02 -.298E+02   -.222E+02 0.160E+02 0.301E+02   0.199E+00 -.157E+00 -.274E+00   0.275E-04 -.688E-04 0.609E-04
   -.220E+02 0.158E+02 -.298E+02   0.222E+02 -.160E+02 0.301E+02   -.199E+00 0.157E+00 -.274E+00   -.275E-04 0.688E-04 0.609E-04
 -----------------------------------------------------------------------------------------------
   -.493E-11 -.411E-11 0.157E-10   -.711E-13 -.711E-14 -.355E-13   0.000E+00 0.000E+00 0.167E-15   0.618E-12 -.162E-12 0.823E-13


 POSITION                                       TOTAL-FORCE (eV/Angst)
 -----------------------------------------------------------------------------------
      0.61018      2.99977      3.69991         0.002047      0.000000      0.000703
      3.68403      8.99931      7.61366        -0.002047      0.000000      0.000703
      4.90439      2.99977      0.21383         0.002047     -0.000000     -0.000703
      7.97824      8.99931      4.12758        -0.002047     -0.000000     -0.000703
      0.00000      0.00000      0.00000         0.000000      0.000000      0.000000
      4.29421      0.00000      3.91374         0.000000      0.000000      0.000000
      4.29421      5.99954      3.91374         0.000000      0.000000     -0.000000
      0.00000      5.99954      0.00000         0.000000      0.000000     -0.000000
      4.34052      8.99931      3.47966         0.011620     -0.000000     -0.023889
      8.54211      2.99977      7.39341        -0.011620      0.000000     -0.023889
      0.04631      8.99931      0.43408         0.011620      0.000000      0.023889
      4.24790      2.99977      4.34783        -0.011620     -0.000000      0.023889
      2.60144      5.60728      1.46776         0.000927     -0.002061      0.002425
      1.69277      6.39180      5.38150        -0.000927      0.002061      0.002425
      6.89565      0.39226      2.44598         0.000927      0.002061     -0.002425
      5.98698     11.60683      6.35973        -0.000927     -0.002061     -0.002425
      2.60144      0.39226      1.46776         0.000927      0.002061      0.002425
      1.69277     11.60683      5.38150        -0.000927     -0.002061      0.002425
      5.98698      6.39180      6.35973        -0.000927      0.002061     -0.002425
      6.89565      5.60728      2.44598         0.000927     -0.002061     -0.002425
 -----------------------------------------------------------------------------------
    total drift:                               -0.000000     -0.000000      0.000000


--------------------------------------------------------------------------------------------------------



  FREE ENERGIE OF THE ION-ELECTRON SYSTEM (eV)
  ---------------------------------------------------
  free  energy   TOTEN  =      -714.87838389 eV

  energy  without entropy=     -714.87838389  energy(sigma->0) =     -714.87838389



--------------------------------------------------------------------------------------------------------


    POTLOK:  cpu time    1.1991: real time    1.1992


--------------------------------------------------------------------------------------------------------


 stress matrix after NEB project (eV)
     -2.24777      0.00000      0.00000
      0.00000     -3.55267      0.00000
      0.00000      0.00000     -0.57525
  FORCES: max atom, RMS     0.026565    0.012103
  FORCE total and by dimension    0.054125    0.023889
  Stress total and by dimension    4.243207    3.552665
     LOOP+:  cpu time  110.8061: real time  111.3046
    4ORBIT:  cpu time    0.0000: real time    0.0000



 total charge     

# of ion       s       p       d       tot
------------------------------------------
    1        1.785   4.719   0.018   6.522
    2        1.785   4.719   0.018   6.522
    3        1.785   4.719   0.018   6.522
    4        1.785   4.719   0.018   6.522
    5        1.553   0.414   9.832  11.798
    6        1.553   0.413   9.832  11.798
    7        1.553   0.413   9.832  11.798
    8        1.553   0.414   9.832  11.798
    9        1.613   3.283   0.005   4.901
   10        1.613   3.283   0.005   4.902
   11        1.613   3.283   0.005   4.902
   12        1.613   3.283   0.005   4.901
   13        1.615   3.270   0.006   4.892
   14        1.614   3.292   0.006   4.912
   15        1.614   3.292   0.006   4.912
   16        1.615   3.270   0.006   4.892
   17        1.615   3.270   0.006   4.892
   18        1.614   3.292   0.006   4.912
   19        1.615   3.270   0.006   4.892
   20        1.614   3.292   0.006   4.912
--------------------------------------------------
tot         32.719  59.910  39.469 132.098


 total amount of memory used by VASP MPI-rank0    43696. kBytes
=======================================================================

   base      :      30000. kBytes
   nonlr-proj:       3301. kBytes
   fftplans  :       4446. kBytes
   grid      :       3667. kBytes
   one-center:         46. kBytes
   wavefun   :       2236. kBytes

  
  
 General timing and accounting informations for this job:
 ========================================================
  
                  Total CPU time used (sec):      117.344
                            User time (sec):      116.572
                          System time (sec):        0.772
                         Elapsed time (sec):      117.986
  
                   Maximum memory used (kb):       83012.
                   Average memory used (kb):           0.
  
                          Minor page faults:        20397
                          Major page faults:            3
                 Voluntary context switches:         1484
