 running on   64 total cores
 distrk:  each k-point on   64 cores,    1 groups
 distr:  one band on    8 cores,    8 groups
 using from now: INCAR     
 vasp.5.4.4.18Apr17-6-g9f103f2a35 (build Jun 29 2021 12:58:12) complex           
 POSCAR found type information on POSCAR  Cs Pb Br
 POSCAR found :  3 types and      20 ions
 scaLAPACK will be used
 LDA part: xc-table for Pade appr. of Perdew
 POSCAR found type information on POSCAR  Cs Pb Br
 POSCAR found :  3 types and      20 ions
 POSCAR, INCAR and KPOINTS ok, starting setup
 FFT: planning ...
 WAVECAR not read
 entering main loop
       N       E                     dE             d eps       ncg     rms          rms(c)
DAV:   1     0.667210547553E+03    0.66721E+03   -0.56112E+04  1832   0.923E+02
DAV:   2    -0.573983432345E+03   -0.12412E+04   -0.11853E+04  2192   0.286E+02
DAV:   3    -0.748950169470E+03   -0.17497E+03   -0.17385E+03  2432   0.128E+02
DAV:   4    -0.754557809774E+03   -0.56076E+01   -0.55894E+01  2136   0.298E+01
DAV:   5    -0.754820130218E+03   -0.26232E+00   -0.26214E+00  2376   0.523E+00    0.698E+00
DAV:   6    -0.714974188238E+03    0.39846E+02   -0.11867E+01  2376   0.286E+01    0.498E+00
DAV:   7    -0.714739550509E+03    0.23464E+00   -0.38882E+00  2264   0.487E+00    0.259E+00
DAV:   8    -0.714835175299E+03   -0.95625E-01   -0.18335E-01  2144   0.171E+00    0.148E+00
DAV:   9    -0.714875723532E+03   -0.40548E-01   -0.86163E-02  1936   0.120E+00    0.324E-01
DAV:  10    -0.714876695038E+03   -0.97151E-03   -0.53551E-03  2632   0.331E-01    0.187E-01
DAV:  11    -0.714878313260E+03   -0.16182E-02   -0.18314E-03  1952   0.170E-01    0.673E-02
DAV:  12    -0.714878374062E+03   -0.60802E-04   -0.46779E-04  2192   0.931E-02    0.230E-02
DAV:  13    -0.714878366879E+03    0.71832E-05   -0.50010E-05  2184   0.271E-02    0.752E-03
DAV:  14    -0.714878383594E+03   -0.16715E-04   -0.36017E-06  1848   0.664E-03    0.241E-03
DAV:  15    -0.714878383886E+03   -0.29135E-06   -0.85254E-07  1304   0.343E-03
   1 F= -.71487838E+03 E0= -.71487838E+03  d E =-.483348E-25
Application 1866220 resources: utime ~7463s, stime ~76s, Rss ~83012, inblocks ~1328, outblocks ~52640
