CsPbBr3 cubic bulk                      
           1
     8.588418    0.000000    0.000000
     0.000000   11.999084    0.000000
     0.000000    0.000000    7.827489
   Cs   Pb   Br
   4   4  12
Direct configuration=     1
   0.07104659  0.25000000  0.47268179
   0.42895341  0.75000000  0.97268179
   0.57104659  0.25000000  0.02731821
   0.92895341  0.75000000  0.52731821
   0.00000000  0.00000000  0.00000000
   0.50000000  0.00000000  0.50000000
   0.50000000  0.50000000  0.50000000
   0.00000000  0.50000000  0.00000000
   0.50539215  0.75000000  0.44454394
   0.99460785  0.25000000  0.94454394
   0.00539215  0.75000000  0.05545606
   0.49460785  0.25000000  0.55545606
   0.30290059  0.46730933  0.18751356
   0.19709941  0.53269067  0.68751356
   0.80290059  0.03269067  0.31248644
   0.69709941  0.96730933  0.81248644
   0.30290059  0.03269067  0.18751356
   0.19709941  0.96730933  0.68751356
   0.69709941  0.53269067  0.81248644
   0.80290059  0.46730933  0.31248644
