  40  40   1   0
  0.4040437E+02  0.1173535E-08  0.1173535E-08  0.1173535E-08  0.5000000E-15
   1.0000000000000000E-004
  CAR 
 CsPbBr3 cubic bulk                      
      8.16459593    -22.35331894  301      0.86572795      1.00000000
    -22.353  0.0000E+00  0.0000E+00
    -22.252  0.0000E+00  0.0000E+00
    -22.150  0.0000E+00  0.0000E+00
    -22.048  0.0000E+00  0.0000E+00
    -21.946  0.0000E+00  0.0000E+00
    -21.845  0.0000E+00  0.0000E+00
    -21.743  0.0000E+00  0.0000E+00
    -21.641  0.0000E+00  0.0000E+00
    -21.540  0.0000E+00  0.0000E+00
    -21.438  0.0000E+00  0.0000E+00
    -21.336  0.0000E+00  0.0000E+00
    -21.234  0.0000E+00  0.0000E+00
    -21.133  0.0000E+00  0.0000E+00
    -21.031  0.0000E+00  0.0000E+00
    -20.929  0.1573E+03  0.1600E+02
    -20.827  0.0000E+00  0.1600E+02
    -20.726  0.0000E+00  0.1600E+02
    -20.624  0.0000E+00  0.1600E+02
    -20.522  0.0000E+00  0.1600E+02
    -20.421  0.0000E+00  0.1600E+02
    -20.319  0.0000E+00  0.1600E+02
    -20.217  0.0000E+00  0.1600E+02
    -20.115  0.0000E+00  0.1600E+02
    -20.014  0.0000E+00  0.1600E+02
    -19.912  0.0000E+00  0.1600E+02
    -19.810  0.0000E+00  0.1600E+02
    -19.708  0.0000E+00  0.1600E+02
    -19.607  0.0000E+00  0.1600E+02
    -19.505  0.0000E+00  0.1600E+02
    -19.403  0.0000E+00  0.1600E+02
    -19.302  0.0000E+00  0.1600E+02
    -19.200  0.0000E+00  0.1600E+02
    -19.098  0.0000E+00  0.1600E+02
    -18.996  0.0000E+00  0.1600E+02
    -18.895  0.0000E+00  0.1600E+02
    -18.793  0.0000E+00  0.1600E+02
    -18.691  0.0000E+00  0.1600E+02
    -18.589  0.0000E+00  0.1600E+02
    -18.488  0.0000E+00  0.1600E+02
    -18.386  0.0000E+00  0.1600E+02
    -18.284  0.0000E+00  0.1600E+02
    -18.183  0.0000E+00  0.1600E+02
    -18.081  0.0000E+00  0.1600E+02
    -17.979  0.0000E+00  0.1600E+02
    -17.877  0.0000E+00  0.1600E+02
    -17.776  0.0000E+00  0.1600E+02
    -17.674  0.0000E+00  0.1600E+02
    -17.572  0.0000E+00  0.1600E+02
    -17.470  0.0000E+00  0.1600E+02
    -17.369  0.0000E+00  0.1600E+02
    -17.267  0.0000E+00  0.1600E+02
    -17.165  0.0000E+00  0.1600E+02
    -17.064  0.0000E+00  0.1600E+02
    -16.962  0.0000E+00  0.1600E+02
    -16.860  0.0000E+00  0.1600E+02
    -16.758  0.0000E+00  0.1600E+02
    -16.657  0.0000E+00  0.1600E+02
    -16.555  0.0000E+00  0.1600E+02
    -16.453  0.0000E+00  0.1600E+02
    -16.351  0.6385E+02  0.2249E+02
    -16.250  0.1857E+03  0.4789E+02
    -16.148  0.4718E+03  0.9600E+02
    -16.046  0.0000E+00  0.9600E+02
    -15.945  0.0000E+00  0.9600E+02
    -15.843  0.0000E+00  0.9600E+02
    -15.741  0.0000E+00  0.9600E+02
    -15.639  0.0000E+00  0.9600E+02
    -15.538  0.0000E+00  0.9600E+02
    -15.436  0.0000E+00  0.9600E+02
    -15.334  0.0000E+00  0.9600E+02
    -15.232  0.0000E+00  0.9600E+02
    -15.131  0.0000E+00  0.9600E+02
    -15.029  0.0000E+00  0.9600E+02
    -14.927  0.0000E+00  0.9600E+02
    -14.826  0.0000E+00  0.9600E+02
    -14.724  0.0000E+00  0.9600E+02
    -14.622  0.0000E+00  0.9600E+02
    -14.520  0.0000E+00  0.9600E+02
    -14.419  0.1836E-10  0.9600E+02
    -14.317  0.3365E+01  0.9634E+02
    -14.215  0.3015E+02  0.1008E+03
    -14.113  0.2711E+02  0.1055E+03
    -14.012  0.5992E+02  0.1136E+03
    -13.910  0.9229E+02  0.1234E+03
    -13.808  0.1032E+03  0.1342E+03
    -13.707  0.5899E+02  0.1413E+03
    -13.605  0.2703E+02  0.1440E+03
    -13.503  0.0000E+00  0.1440E+03
    -13.401  0.0000E+00  0.1440E+03
    -13.300  0.0000E+00  0.1440E+03
    -13.198  0.0000E+00  0.1440E+03
    -13.096  0.0000E+00  0.1440E+03
    -12.994  0.0000E+00  0.1440E+03
    -12.893  0.0000E+00  0.1440E+03
    -12.791  0.0000E+00  0.1440E+03
    -12.689  0.0000E+00  0.1440E+03
    -12.588  0.0000E+00  0.1440E+03
    -12.486  0.0000E+00  0.1440E+03
    -12.384  0.0000E+00  0.1440E+03
    -12.282  0.0000E+00  0.1440E+03
    -12.181  0.0000E+00  0.1440E+03
    -12.079  0.0000E+00  0.1440E+03
    -11.977  0.0000E+00  0.1440E+03
    -11.876  0.0000E+00  0.1440E+03
    -11.774  0.0000E+00  0.1440E+03
    -11.672  0.0000E+00  0.1440E+03
    -11.570  0.0000E+00  0.1440E+03
    -11.469  0.0000E+00  0.1440E+03
    -11.367  0.0000E+00  0.1440E+03
    -11.265  0.0000E+00  0.1440E+03
    -11.163  0.0000E+00  0.1440E+03
    -11.062  0.0000E+00  0.1440E+03
    -10.960  0.0000E+00  0.1440E+03
    -10.858  0.0000E+00  0.1440E+03
    -10.757  0.0000E+00  0.1440E+03
    -10.655  0.0000E+00  0.1440E+03
    -10.553  0.0000E+00  0.1440E+03
    -10.451  0.0000E+00  0.1440E+03
    -10.350  0.0000E+00  0.1440E+03
    -10.248  0.0000E+00  0.1440E+03
    -10.146  0.0000E+00  0.1440E+03
    -10.044  0.0000E+00  0.1440E+03
     -9.943  0.0000E+00  0.1440E+03
     -9.841  0.0000E+00  0.1440E+03
     -9.739  0.0000E+00  0.1440E+03
     -9.638  0.0000E+00  0.1440E+03
     -9.536  0.0000E+00  0.1440E+03
     -9.434  0.0000E+00  0.1440E+03
     -9.332  0.0000E+00  0.1440E+03
     -9.231  0.0000E+00  0.1440E+03
     -9.129  0.0000E+00  0.1440E+03
     -9.027  0.0000E+00  0.1440E+03
     -8.925  0.0000E+00  0.1440E+03
     -8.824  0.0000E+00  0.1440E+03
     -8.722  0.0000E+00  0.1440E+03
     -8.620  0.0000E+00  0.1440E+03
     -8.519  0.0000E+00  0.1440E+03
     -8.417  0.0000E+00  0.1440E+03
     -8.315  0.0000E+00  0.1440E+03
     -8.213  0.2224E+01  0.1442E+03
     -8.112  0.0000E+00  0.1442E+03
     -8.010  0.4315E-02  0.1443E+03
     -7.908  0.1474E+02  0.1457E+03
     -7.806  0.3820E-14  0.1458E+03
     -7.705  0.1629E+02  0.1474E+03
     -7.603  0.1294E-03  0.1493E+03
     -7.501  0.2458E+01  0.1495E+03
     -7.400  0.3935E+02  0.1535E+03
     -7.298  0.4629E+03  0.2011E+03
     -7.196  0.1637E-13  0.2025E+03
     -7.094  0.2212E+02  0.2048E+03
     -6.993  0.1468E+02  0.2062E+03
     -6.891  0.0000E+00  0.2062E+03
     -6.789  0.4915E+01  0.2067E+03
     -6.687  0.9830E+01  0.2077E+03
     -6.586  0.0000E+00  0.2078E+03
     -6.484  0.0000E+00  0.2078E+03
     -6.382  0.1535E-04  0.2078E+03
     -6.281  0.2458E+01  0.2080E+03
     -6.179  0.0000E+00  0.2080E+03
     -6.077  0.0000E+00  0.2080E+03
     -5.975  0.0000E+00  0.2080E+03
     -5.874  0.0000E+00  0.2080E+03
     -5.772  0.0000E+00  0.2080E+03
     -5.670  0.0000E+00  0.2080E+03
     -5.568  0.0000E+00  0.2080E+03
     -5.467  0.0000E+00  0.2080E+03
     -5.365  0.0000E+00  0.2080E+03
     -5.263  0.0000E+00  0.2080E+03
     -5.162  0.0000E+00  0.2080E+03
     -5.060  0.0000E+00  0.2080E+03
     -4.958  0.0000E+00  0.2080E+03
     -4.856  0.0000E+00  0.2080E+03
     -4.755  0.0000E+00  0.2080E+03
     -4.653  0.0000E+00  0.2080E+03
     -4.551  0.0000E+00  0.2080E+03
     -4.449  0.0000E+00  0.2080E+03
     -4.348  0.0000E+00  0.2080E+03
     -4.246  0.0000E+00  0.2080E+03
     -4.144  0.0000E+00  0.2080E+03
     -4.043  0.0000E+00  0.2080E+03
     -3.941  0.0000E+00  0.2080E+03
     -3.839  0.0000E+00  0.2080E+03
     -3.737  0.0000E+00  0.2080E+03
     -3.636  0.0000E+00  0.2080E+03
     -3.534  0.0000E+00  0.2080E+03
     -3.432  0.2719E+01  0.2083E+03
     -3.330  0.1516E+02  0.2108E+03
     -3.229  0.2806E+02  0.2146E+03
     -3.127  0.3895E+02  0.2195E+03
     -3.025  0.4914E+01  0.2200E+03
     -2.924  0.0000E+00  0.2200E+03
     -2.822  0.0000E+00  0.2200E+03
     -2.720  0.0000E+00  0.2200E+03
     -2.618  0.2954E+02  0.2230E+03
     -2.517  0.2241E+02  0.2273E+03
     -2.415  0.3926E+02  0.2340E+03
     -2.313  0.5045E+01  0.2350E+03
     -2.211  0.4619E+02  0.2417E+03
     -2.110  0.2663E+02  0.2447E+03
     -2.008  0.4571E+02  0.2494E+03
     -1.906  0.1962E+02  0.2532E+03
     -1.805  0.2328E+02  0.2559E+03
     -1.703  0.3438E+02  0.2602E+03
     -1.601  0.5328E+02  0.2657E+03
     -1.499  0.6245E+02  0.2751E+03
     -1.398  0.3798E+02  0.2801E+03
     -1.296  0.1078E+03  0.2952E+03
     -1.194  0.1102E+03  0.3107E+03
     -1.093  0.4432E+02  0.3170E+03
     -0.991  0.1089E+03  0.3328E+03
     -0.889  0.2246E+02  0.3360E+03
     -0.787  0.6347E+02  0.3427E+03
     -0.686  0.2463E-03  0.3428E+03
     -0.584  0.4915E+01  0.3432E+03
     -0.482  0.5508E+01  0.3438E+03
     -0.380  0.2458E+01  0.3455E+03
     -0.279  0.2890E+02  0.3484E+03
     -0.177  0.3221E+00  0.3485E+03
     -0.075  0.0000E+00  0.3495E+03
      0.026  0.1235E+01  0.3496E+03
      0.128  0.4834E+01  0.3502E+03
      0.230  0.4915E+01  0.3508E+03
      0.332  0.9830E+01  0.3518E+03
      0.433  0.0000E+00  0.3518E+03
      0.535  0.0000E+00  0.3518E+03
      0.637  0.0000E+00  0.3518E+03
      0.739  0.7508E-01  0.3518E+03
      0.840  0.0000E+00  0.3520E+03
      0.942  0.0000E+00  0.3520E+03
      1.044  0.0000E+00  0.3520E+03
      1.145  0.0000E+00  0.3520E+03
      1.247  0.0000E+00  0.3520E+03
      1.349  0.0000E+00  0.3520E+03
      1.451  0.0000E+00  0.3520E+03
      1.552  0.0000E+00  0.3520E+03
      1.654  0.0000E+00  0.3520E+03
      1.756  0.0000E+00  0.3520E+03
      1.858  0.0000E+00  0.3520E+03
      1.959  0.0000E+00  0.3520E+03
      2.061  0.0000E+00  0.3520E+03
      2.163  0.0000E+00  0.3520E+03
      2.264  0.0000E+00  0.3520E+03
      2.366  0.0000E+00  0.3520E+03
      2.468  0.0000E+00  0.3520E+03
      2.570  0.0000E+00  0.3520E+03
      2.671  0.0000E+00  0.3520E+03
      2.773  0.4389E-05  0.3520E+03
      2.875  0.7373E+01  0.3527E+03
      2.977  0.5457E-14  0.3528E+03
      3.078  0.2907E+02  0.3557E+03
      3.180  0.2495E-04  0.3558E+03
      3.282  0.4017E+02  0.3598E+03
      3.383  0.0000E+00  0.3602E+03
      3.485  0.2945E+02  0.3632E+03
      3.587  0.0000E+00  0.3632E+03
      3.689  0.2115E+01  0.3635E+03
      3.790  0.4915E+01  0.3640E+03
      3.892  0.0000E+00  0.3640E+03
      3.994  0.0000E+00  0.3640E+03
      4.096  0.0000E+00  0.3640E+03
      4.197  0.0000E+00  0.3640E+03
      4.299  0.0000E+00  0.3640E+03
      4.401  0.9369E+01  0.3650E+03
      4.502  0.9830E+01  0.3660E+03
      4.604  0.2952E+02  0.3690E+03
      4.706  0.2212E+02  0.3717E+03
      4.808  0.4908E+02  0.3767E+03
      4.909  0.9503E-01  0.3778E+03
      5.011  0.4372E+02  0.3842E+03
      5.113  0.1159E+02  0.3859E+03
      5.215  0.1966E+02  0.3882E+03
      5.316  0.0000E+00  0.3882E+03
      5.418  0.8543E+01  0.3891E+03
      5.520  0.1760E+00  0.3893E+03
      5.621  0.2458E+01  0.3900E+03
      5.723  0.0000E+00  0.3900E+03
      5.825  0.1326E+02  0.3913E+03
      5.927  0.2455E+01  0.3942E+03
      6.028  0.2376E+02  0.3967E+03
      6.130  0.1972E+02  0.3995E+03
      6.232  0.2732E+02  0.4043E+03
      6.334  0.9996E+01  0.4058E+03
      6.435  0.7038E+02  0.4132E+03
      6.537  0.3588E+02  0.4169E+03
      6.639  0.7906E+02  0.4258E+03
      6.740  0.3187E+02  0.4302E+03
      6.842  0.9829E+01  0.4320E+03
      6.944  0.0000E+00  0.4320E+03
      7.046  0.0000E+00  0.4320E+03
      7.147  0.0000E+00  0.4320E+03
      7.249  0.0000E+00  0.4320E+03
      7.351  0.0000E+00  0.4320E+03
      7.453  0.0000E+00  0.4320E+03
      7.554  0.0000E+00  0.4320E+03
      7.656  0.0000E+00  0.4320E+03
      7.758  0.0000E+00  0.4320E+03
      7.859  0.0000E+00  0.4320E+03
      7.961  0.0000E+00  0.4320E+03
      8.063  0.0000E+00  0.4320E+03
      8.165  0.0000E+00  0.4320E+03
      8.16459593    -22.35331894  301      0.86572795      1.00000000
    -22.353  0.0000E+00  0.0000E+00  0.0000E+00
    -22.252  0.0000E+00  0.0000E+00  0.0000E+00
    -22.150  0.0000E+00  0.0000E+00  0.0000E+00
    -22.048  0.0000E+00  0.0000E+00  0.0000E+00
    -21.946  0.0000E+00  0.0000E+00  0.0000E+00
    -21.845  0.0000E+00  0.0000E+00  0.0000E+00
    -21.743  0.0000E+00  0.0000E+00  0.0000E+00
    -21.641  0.0000E+00  0.0000E+00  0.0000E+00
    -21.540  0.0000E+00  0.0000E+00  0.0000E+00
    -21.438  0.0000E+00  0.0000E+00  0.0000E+00
    -21.336  0.0000E+00  0.0000E+00  0.0000E+00
    -21.234  0.0000E+00  0.0000E+00  0.0000E+00
    -21.133  0.0000E+00  0.0000E+00  0.0000E+00
    -21.031  0.0000E+00  0.0000E+00  0.0000E+00
    -20.929  0.1745E+02  0.1019E-06  0.4824E-05
    -20.827  0.0000E+00  0.0000E+00  0.0000E+00
    -20.726  0.0000E+00  0.0000E+00  0.0000E+00
    -20.624  0.0000E+00  0.0000E+00  0.0000E+00
    -20.522  0.0000E+00  0.0000E+00  0.0000E+00
    -20.421  0.0000E+00  0.0000E+00  0.0000E+00
    -20.319  0.0000E+00  0.0000E+00  0.0000E+00
    -20.217  0.0000E+00  0.0000E+00  0.0000E+00
    -20.115  0.0000E+00  0.0000E+00  0.0000E+00
    -20.014  0.0000E+00  0.0000E+00  0.0000E+00
    -19.912  0.0000E+00  0.0000E+00  0.0000E+00
    -19.810  0.0000E+00  0.0000E+00  0.0000E+00
    -19.708  0.0000E+00  0.0000E+00  0.0000E+00
    -19.607  0.0000E+00  0.0000E+00  0.0000E+00
    -19.505  0.0000E+00  0.0000E+00  0.0000E+00
    -19.403  0.0000E+00  0.0000E+00  0.0000E+00
    -19.302  0.0000E+00  0.0000E+00  0.0000E+00
    -19.200  0.0000E+00  0.0000E+00  0.0000E+00
    -19.098  0.0000E+00  0.0000E+00  0.0000E+00
    -18.996  0.0000E+00  0.0000E+00  0.0000E+00
    -18.895  0.0000E+00  0.0000E+00  0.0000E+00
    -18.793  0.0000E+00  0.0000E+00  0.0000E+00
    -18.691  0.0000E+00  0.0000E+00  0.0000E+00
    -18.589  0.0000E+00  0.0000E+00  0.0000E+00
    -18.488  0.0000E+00  0.0000E+00  0.0000E+00
    -18.386  0.0000E+00  0.0000E+00  0.0000E+00
    -18.284  0.0000E+00  0.0000E+00  0.0000E+00
    -18.183  0.0000E+00  0.0000E+00  0.0000E+00
    -18.081  0.0000E+00  0.0000E+00  0.0000E+00
    -17.979  0.0000E+00  0.0000E+00  0.0000E+00
    -17.877  0.0000E+00  0.0000E+00  0.0000E+00
    -17.776  0.0000E+00  0.0000E+00  0.0000E+00
    -17.674  0.0000E+00  0.0000E+00  0.0000E+00
    -17.572  0.0000E+00  0.0000E+00  0.0000E+00
    -17.470  0.0000E+00  0.0000E+00  0.0000E+00
    -17.369  0.0000E+00  0.0000E+00  0.0000E+00
    -17.267  0.0000E+00  0.0000E+00  0.0000E+00
    -17.165  0.0000E+00  0.0000E+00  0.0000E+00
    -17.064  0.0000E+00  0.0000E+00  0.0000E+00
    -16.962  0.0000E+00  0.0000E+00  0.0000E+00
    -16.860  0.0000E+00  0.0000E+00  0.0000E+00
    -16.758  0.0000E+00  0.0000E+00  0.0000E+00
    -16.657  0.0000E+00  0.0000E+00  0.0000E+00
    -16.555  0.0000E+00  0.0000E+00  0.0000E+00
    -16.453  0.0000E+00  0.0000E+00  0.0000E+00
    -16.351  0.1909E-04  0.1183E-04  0.4024E-05
    -16.250  0.3077E-04  0.5095E-04  0.6534E-05
    -16.148  0.2908E-04  0.1978E-04  0.2052E-05
    -16.046  0.0000E+00  0.0000E+00  0.0000E+00
    -15.945  0.0000E+00  0.0000E+00  0.0000E+00
    -15.843  0.0000E+00  0.0000E+00  0.0000E+00
    -15.741  0.0000E+00  0.0000E+00  0.0000E+00
    -15.639  0.0000E+00  0.0000E+00  0.0000E+00
    -15.538  0.0000E+00  0.0000E+00  0.0000E+00
    -15.436  0.0000E+00  0.0000E+00  0.0000E+00
    -15.334  0.0000E+00  0.0000E+00  0.0000E+00
    -15.232  0.0000E+00  0.0000E+00  0.0000E+00
    -15.131  0.0000E+00  0.0000E+00  0.0000E+00
    -15.029  0.0000E+00  0.0000E+00  0.0000E+00
    -14.927  0.0000E+00  0.0000E+00  0.0000E+00
    -14.826  0.0000E+00  0.0000E+00  0.0000E+00
    -14.724  0.0000E+00  0.0000E+00  0.0000E+00
    -14.622  0.0000E+00  0.0000E+00  0.0000E+00
    -14.520  0.0000E+00  0.0000E+00  0.0000E+00
    -14.419  0.2346E-14  0.2314E-29  0.3800E-17
    -14.317  0.3885E-03  0.2690E-04  0.9429E-06
    -14.215  0.1574E-02  0.1295E-02  0.3137E-04
    -14.113  0.1142E-07  0.1823E-02  0.4621E-04
    -14.012  0.3260E-03  0.2436E-02  0.1060E-03
    -13.910  0.1532E-02  0.3779E-02  0.3464E-03
    -13.808  0.6209E-03  0.2981E-02  0.3180E-03
    -13.707  0.6186E-03  0.7675E-03  0.1758E-03
    -13.605  0.2460E-03  0.5367E-03  0.6380E-04
    -13.503  0.0000E+00  0.0000E+00  0.0000E+00
    -13.401  0.0000E+00  0.0000E+00  0.0000E+00
    -13.300  0.0000E+00  0.0000E+00  0.0000E+00
    -13.198  0.0000E+00  0.0000E+00  0.0000E+00
    -13.096  0.0000E+00  0.0000E+00  0.0000E+00
    -12.994  0.0000E+00  0.0000E+00  0.0000E+00
    -12.893  0.0000E+00  0.0000E+00  0.0000E+00
    -12.791  0.0000E+00  0.0000E+00  0.0000E+00
    -12.689  0.0000E+00  0.0000E+00  0.0000E+00
    -12.588  0.0000E+00  0.0000E+00  0.0000E+00
    -12.486  0.0000E+00  0.0000E+00  0.0000E+00
    -12.384  0.0000E+00  0.0000E+00  0.0000E+00
    -12.282  0.0000E+00  0.0000E+00  0.0000E+00
    -12.181  0.0000E+00  0.0000E+00  0.0000E+00
    -12.079  0.0000E+00  0.0000E+00  0.0000E+00
    -11.977  0.0000E+00  0.0000E+00  0.0000E+00
    -11.876  0.0000E+00  0.0000E+00  0.0000E+00
    -11.774  0.0000E+00  0.0000E+00  0.0000E+00
    -11.672  0.0000E+00  0.0000E+00  0.0000E+00
    -11.570  0.0000E+00  0.0000E+00  0.0000E+00
    -11.469  0.0000E+00  0.0000E+00  0.0000E+00
    -11.367  0.0000E+00  0.0000E+00  0.0000E+00
    -11.265  0.0000E+00  0.0000E+00  0.0000E+00
    -11.163  0.0000E+00  0.0000E+00  0.0000E+00
    -11.062  0.0000E+00  0.0000E+00  0.0000E+00
    -10.960  0.0000E+00  0.0000E+00  0.0000E+00
    -10.858  0.0000E+00  0.0000E+00  0.0000E+00
    -10.757  0.0000E+00  0.0000E+00  0.0000E+00
    -10.655  0.0000E+00  0.0000E+00  0.0000E+00
    -10.553  0.0000E+00  0.0000E+00  0.0000E+00
    -10.451  0.0000E+00  0.0000E+00  0.0000E+00
    -10.350  0.0000E+00  0.0000E+00  0.0000E+00
    -10.248  0.0000E+00  0.0000E+00  0.0000E+00
    -10.146  0.0000E+00  0.0000E+00  0.0000E+00
    -10.044  0.0000E+00  0.0000E+00  0.0000E+00
     -9.943  0.0000E+00  0.0000E+00  0.0000E+00
     -9.841  0.0000E+00  0.0000E+00  0.0000E+00
     -9.739  0.0000E+00  0.0000E+00  0.0000E+00
     -9.638  0.0000E+00  0.0000E+00  0.0000E+00
     -9.536  0.0000E+00  0.0000E+00  0.0000E+00
     -9.434  0.0000E+00  0.0000E+00  0.0000E+00
     -9.332  0.0000E+00  0.0000E+00  0.0000E+00
     -9.231  0.0000E+00  0.0000E+00  0.0000E+00
     -9.129  0.0000E+00  0.0000E+00  0.0000E+00
     -9.027  0.0000E+00  0.0000E+00  0.0000E+00
     -8.925  0.0000E+00  0.0000E+00  0.0000E+00
     -8.824  0.0000E+00  0.0000E+00  0.0000E+00
     -8.722  0.0000E+00  0.0000E+00  0.0000E+00
     -8.620  0.0000E+00  0.0000E+00  0.0000E+00
     -8.519  0.0000E+00  0.0000E+00  0.0000E+00
     -8.417  0.0000E+00  0.0000E+00  0.0000E+00
     -8.315  0.0000E+00  0.0000E+00  0.0000E+00
     -8.213  0.8913E-19  0.5976E-18  0.4642E-18
     -8.112  0.0000E+00  0.0000E+00  0.0000E+00
     -8.010  0.2101E-22  0.1479E-05  0.7514E-09
     -7.908  0.6575E-19  0.3368E-02  0.3305E-05
     -7.806  0.1260E-34  0.5300E-17  0.1809E-20
     -7.705  0.1909E-18  0.2319E-01  0.9033E-05
     -7.603  0.1410E-24  0.5390E-21  0.1185E-09
     -7.501  0.5715E-12  0.4434E-05  0.2250E-05
     -7.400  0.1855E-04  0.4268E+00  0.4050E-04
     -7.298  0.1929E-04  0.4330E+02  0.5868E-04
     -7.196  0.3024E-19  0.5119E-16  0.2160E-19
     -7.094  0.3631E-04  0.7781E-01  0.2767E-04
     -6.993  0.1663E-04  0.2638E-03  0.2906E-04
     -6.891  0.0000E+00  0.0000E+00  0.0000E+00
     -6.789  0.1549E-04  0.4682E-03  0.3219E-05
     -6.687  0.2764E-04  0.6090E-03  0.1604E-04
     -6.586  0.0000E+00  0.0000E+00  0.0000E+00
     -6.484  0.0000E+00  0.0000E+00  0.0000E+00
     -6.382  0.6768E-10  0.1380E-22  0.1068E-10
     -6.281  0.1084E-04  0.2211E-17  0.1711E-05
     -6.179  0.0000E+00  0.0000E+00  0.0000E+00
     -6.077  0.0000E+00  0.0000E+00  0.0000E+00
     -5.975  0.0000E+00  0.0000E+00  0.0000E+00
     -5.874  0.0000E+00  0.0000E+00  0.0000E+00
     -5.772  0.0000E+00  0.0000E+00  0.0000E+00
     -5.670  0.0000E+00  0.0000E+00  0.0000E+00
     -5.568  0.0000E+00  0.0000E+00  0.0000E+00
     -5.467  0.0000E+00  0.0000E+00  0.0000E+00
     -5.365  0.0000E+00  0.0000E+00  0.0000E+00
     -5.263  0.0000E+00  0.0000E+00  0.0000E+00
     -5.162  0.0000E+00  0.0000E+00  0.0000E+00
     -5.060  0.0000E+00  0.0000E+00  0.0000E+00
     -4.958  0.0000E+00  0.0000E+00  0.0000E+00
     -4.856  0.0000E+00  0.0000E+00  0.0000E+00
     -4.755  0.0000E+00  0.0000E+00  0.0000E+00
     -4.653  0.0000E+00  0.0000E+00  0.0000E+00
     -4.551  0.0000E+00  0.0000E+00  0.0000E+00
     -4.449  0.0000E+00  0.0000E+00  0.0000E+00
     -4.348  0.0000E+00  0.0000E+00  0.0000E+00
     -4.246  0.0000E+00  0.0000E+00  0.0000E+00
     -4.144  0.0000E+00  0.0000E+00  0.0000E+00
     -4.043  0.0000E+00  0.0000E+00  0.0000E+00
     -3.941  0.0000E+00  0.0000E+00  0.0000E+00
     -3.839  0.0000E+00  0.0000E+00  0.0000E+00
     -3.737  0.0000E+00  0.0000E+00  0.0000E+00
     -3.636  0.0000E+00  0.0000E+00  0.0000E+00
     -3.534  0.0000E+00  0.0000E+00  0.0000E+00
     -3.432  0.3981E-09  0.2678E-02  0.1204E-04
     -3.330  0.1803E-16  0.3240E-02  0.5281E-03
     -3.229  0.4210E-16  0.1493E-01  0.6241E-03
     -3.127  0.7942E-16  0.6412E-02  0.1389E-02
     -3.025  0.7490E-18  0.1409E-17  0.4124E-05
     -2.924  0.0000E+00  0.0000E+00  0.0000E+00
     -2.822  0.0000E+00  0.0000E+00  0.0000E+00
     -2.720  0.0000E+00  0.0000E+00  0.0000E+00
     -2.618  0.7149E-04  0.2545E-01  0.2725E-03
     -2.517  0.1505E-03  0.3165E-02  0.9482E-03
     -2.415  0.1165E-02  0.2199E-01  0.1674E-02
     -2.313  0.1006E-03  0.2140E-03  0.6347E-04
     -2.211  0.1349E-02  0.1471E-01  0.1839E-02
     -2.110  0.7634E-02  0.1988E-02  0.3105E-02
     -2.008  0.1676E-01  0.3353E-01  0.3071E-02
     -1.906  0.5265E-02  0.2239E-01  0.9700E-03
     -1.805  0.1389E-02  0.5378E-01  0.2101E-02
     -1.703  0.1078E-02  0.6776E-01  0.4098E-02
     -1.601  0.1515E-02  0.6580E-01  0.8277E-02
     -1.499  0.1173E-02  0.7189E-01  0.1035E-01
     -1.398  0.4602E-03  0.1987E-01  0.4824E-02
     -1.296  0.4021E-02  0.4564E-01  0.1554E-01
     -1.194  0.4793E-02  0.5392E-01  0.1354E-01
     -1.093  0.1723E-02  0.2295E-01  0.4654E-02
     -0.991  0.1161E-02  0.6192E-01  0.1044E-01
     -0.889  0.8636E-04  0.5053E-02  0.3288E-02
     -0.787  0.3491E-03  0.1586E-01  0.5890E-02
     -0.686  0.8265E-22  0.2693E-07  0.4148E-08
     -0.584  0.1649E-17  0.5373E-03  0.8275E-04
     -0.482  0.5110E-15  0.1169E-02  0.5521E-04
     -0.380  0.7869E-17  0.1138E-03  0.2255E-04
     -0.279  0.2091E-04  0.2506E-02  0.3503E-03
     -0.177  0.1971E-18  0.9719E-05  0.1082E-05
     -0.075  0.0000E+00  0.0000E+00  0.0000E+00
      0.026  0.1957E-17  0.6428E-16  0.8695E-04
      0.128  0.4805E-16  0.1837E-03  0.3270E-03
      0.230  0.4730E-16  0.7600E-12  0.1244E-03
      0.332  0.1436E-15  0.2026E-03  0.2344E-03
      0.433  0.0000E+00  0.0000E+00  0.0000E+00
      0.535  0.0000E+00  0.0000E+00  0.0000E+00
      0.637  0.0000E+00  0.0000E+00  0.0000E+00
      0.739  0.1322E-18  0.2648E-18  0.3608E-17
      0.840  0.0000E+00  0.0000E+00  0.0000E+00
      0.942  0.0000E+00  0.0000E+00  0.0000E+00
      1.044  0.0000E+00  0.0000E+00  0.0000E+00
      1.145  0.0000E+00  0.0000E+00  0.0000E+00
      1.247  0.0000E+00  0.0000E+00  0.0000E+00
      1.349  0.0000E+00  0.0000E+00  0.0000E+00
      1.451  0.0000E+00  0.0000E+00  0.0000E+00
      1.552  0.0000E+00  0.0000E+00  0.0000E+00
      1.654  0.0000E+00  0.0000E+00  0.0000E+00
      1.756  0.0000E+00  0.0000E+00  0.0000E+00
      1.858  0.0000E+00  0.0000E+00  0.0000E+00
      1.959  0.0000E+00  0.0000E+00  0.0000E+00
      2.061  0.0000E+00  0.0000E+00  0.0000E+00
      2.163  0.0000E+00  0.0000E+00  0.0000E+00
      2.264  0.0000E+00  0.0000E+00  0.0000E+00
      2.366  0.0000E+00  0.0000E+00  0.0000E+00
      2.468  0.0000E+00  0.0000E+00  0.0000E+00
      2.570  0.0000E+00  0.0000E+00  0.0000E+00
      2.671  0.0000E+00  0.0000E+00  0.0000E+00
      2.773  0.2351E-20  0.1133E-20  0.1498E-08
      2.875  0.2211E-14  0.2050E-05  0.2692E-02
      2.977  0.2741E-19  0.9517E-19  0.1258E-17
      3.078  0.4938E-03  0.5996E-03  0.6538E-02
      3.180  0.1883E-08  0.1526E-08  0.3439E-08
      3.282  0.8531E-03  0.2628E-02  0.5539E-02
      3.383  0.0000E+00  0.0000E+00  0.0000E+00
      3.485  0.4188E-03  0.2952E-02  0.1679E-02
      3.587  0.0000E+00  0.0000E+00  0.0000E+00
      3.689  0.4352E-04  0.3806E-07  0.2434E-04
      3.790  0.2255E-06  0.7430E-03  0.5514E-04
      3.892  0.0000E+00  0.0000E+00  0.0000E+00
      3.994  0.0000E+00  0.0000E+00  0.0000E+00
      4.096  0.0000E+00  0.0000E+00  0.0000E+00
      4.197  0.0000E+00  0.0000E+00  0.0000E+00
      4.299  0.0000E+00  0.0000E+00  0.0000E+00
      4.401  0.2214E-14  0.7691E-06  0.8961E-02
      4.502  0.7146E-03  0.4670E-04  0.3498E-02
      4.604  0.1696E-10  0.3753E-02  0.1678E-01
      4.706  0.1504E-01  0.1268E-02  0.8019E-02
      4.808  0.3491E-02  0.1025E-01  0.2285E-01
      4.909  0.1956E-04  0.1919E-04  0.8880E-05
      5.011  0.7192E-02  0.1090E-01  0.1485E-01
      5.113  0.2393E-01  0.7275E-02  0.2978E-02
      5.215  0.7031E-02  0.7377E-02  0.9842E-02
      5.316  0.0000E+00  0.0000E+00  0.0000E+00
      5.418  0.2793E-01  0.6474E-02  0.5123E-02
      5.520  0.2646E-03  0.3439E-04  0.3178E-04
      5.621  0.1368E-14  0.7770E-05  0.3662E-01
      5.723  0.0000E+00  0.0000E+00  0.0000E+00
      5.825  0.3195E-01  0.9747E-02  0.2758E-01
      5.927  0.9100E-02  0.2132E-07  0.1863E-01
      6.028  0.2396E-03  0.8667E-02  0.1818E+00
      6.130  0.7886E-01  0.8789E-02  0.9496E-01
      6.232  0.1820E-01  0.1244E-02  0.5637E-01
      6.334  0.7447E-07  0.1450E-03  0.4699E-02
      6.435  0.8632E-01  0.2731E-01  0.5133E+00
      6.537  0.4027E-02  0.1970E-01  0.4320E+00
      6.639  0.8473E-01  0.8134E-01  0.9787E+00
      6.740  0.5216E-01  0.9995E-02  0.4120E+00
      6.842  0.2217E-02  0.1058E-01  0.1446E+00
      6.944  0.0000E+00  0.0000E+00  0.0000E+00
      7.046  0.0000E+00  0.0000E+00  0.0000E+00
      7.147  0.0000E+00  0.0000E+00  0.0000E+00
      7.249  0.0000E+00  0.0000E+00  0.0000E+00
      7.351  0.0000E+00  0.0000E+00  0.0000E+00
      7.453  0.0000E+00  0.0000E+00  0.0000E+00
      7.554  0.0000E+00  0.0000E+00  0.0000E+00
      7.656  0.0000E+00  0.0000E+00  0.0000E+00
      7.758  0.0000E+00  0.0000E+00  0.0000E+00
      7.859  0.0000E+00  0.0000E+00  0.0000E+00
      7.961  0.0000E+00  0.0000E+00  0.0000E+00
      8.063  0.0000E+00  0.0000E+00  0.0000E+00
      8.165  0.0000E+00  0.0000E+00  0.0000E+00
      8.16459593    -22.35331894  301      0.86572795      1.00000000
    -22.353  0.0000E+00  0.0000E+00  0.0000E+00
    -22.252  0.0000E+00  0.0000E+00  0.0000E+00
    -22.150  0.0000E+00  0.0000E+00  0.0000E+00
    -22.048  0.0000E+00  0.0000E+00  0.0000E+00
    -21.946  0.0000E+00  0.0000E+00  0.0000E+00
    -21.845  0.0000E+00  0.0000E+00  0.0000E+00
    -21.743  0.0000E+00  0.0000E+00  0.0000E+00
    -21.641  0.0000E+00  0.0000E+00  0.0000E+00
    -21.540  0.0000E+00  0.0000E+00  0.0000E+00
    -21.438  0.0000E+00  0.0000E+00  0.0000E+00
    -21.336  0.0000E+00  0.0000E+00  0.0000E+00
    -21.234  0.0000E+00  0.0000E+00  0.0000E+00
    -21.133  0.0000E+00  0.0000E+00  0.0000E+00
    -21.031  0.0000E+00  0.0000E+00  0.0000E+00
    -20.929  0.1745E+02  0.1019E-06  0.4824E-05
    -20.827  0.0000E+00  0.0000E+00  0.0000E+00
    -20.726  0.0000E+00  0.0000E+00  0.0000E+00
    -20.624  0.0000E+00  0.0000E+00  0.0000E+00
    -20.522  0.0000E+00  0.0000E+00  0.0000E+00
    -20.421  0.0000E+00  0.0000E+00  0.0000E+00
    -20.319  0.0000E+00  0.0000E+00  0.0000E+00
    -20.217  0.0000E+00  0.0000E+00  0.0000E+00
    -20.115  0.0000E+00  0.0000E+00  0.0000E+00
    -20.014  0.0000E+00  0.0000E+00  0.0000E+00
    -19.912  0.0000E+00  0.0000E+00  0.0000E+00
    -19.810  0.0000E+00  0.0000E+00  0.0000E+00
    -19.708  0.0000E+00  0.0000E+00  0.0000E+00
    -19.607  0.0000E+00  0.0000E+00  0.0000E+00
    -19.505  0.0000E+00  0.0000E+00  0.0000E+00
    -19.403  0.0000E+00  0.0000E+00  0.0000E+00
    -19.302  0.0000E+00  0.0000E+00  0.0000E+00
    -19.200  0.0000E+00  0.0000E+00  0.0000E+00
    -19.098  0.0000E+00  0.0000E+00  0.0000E+00
    -18.996  0.0000E+00  0.0000E+00  0.0000E+00
    -18.895  0.0000E+00  0.0000E+00  0.0000E+00
    -18.793  0.0000E+00  0.0000E+00  0.0000E+00
    -18.691  0.0000E+00  0.0000E+00  0.0000E+00
    -18.589  0.0000E+00  0.0000E+00  0.0000E+00
    -18.488  0.0000E+00  0.0000E+00  0.0000E+00
    -18.386  0.0000E+00  0.0000E+00  0.0000E+00
    -18.284  0.0000E+00  0.0000E+00  0.0000E+00
    -18.183  0.0000E+00  0.0000E+00  0.0000E+00
    -18.081  0.0000E+00  0.0000E+00  0.0000E+00
    -17.979  0.0000E+00  0.0000E+00  0.0000E+00
    -17.877  0.0000E+00  0.0000E+00  0.0000E+00
    -17.776  0.0000E+00  0.0000E+00  0.0000E+00
    -17.674  0.0000E+00  0.0000E+00  0.0000E+00
    -17.572  0.0000E+00  0.0000E+00  0.0000E+00
    -17.470  0.0000E+00  0.0000E+00  0.0000E+00
    -17.369  0.0000E+00  0.0000E+00  0.0000E+00
    -17.267  0.0000E+00  0.0000E+00  0.0000E+00
    -17.165  0.0000E+00  0.0000E+00  0.0000E+00
    -17.064  0.0000E+00  0.0000E+00  0.0000E+00
    -16.962  0.0000E+00  0.0000E+00  0.0000E+00
    -16.860  0.0000E+00  0.0000E+00  0.0000E+00
    -16.758  0.0000E+00  0.0000E+00  0.0000E+00
    -16.657  0.0000E+00  0.0000E+00  0.0000E+00
    -16.555  0.0000E+00  0.0000E+00  0.0000E+00
    -16.453  0.0000E+00  0.0000E+00  0.0000E+00
    -16.351  0.1909E-04  0.1183E-04  0.4024E-05
    -16.250  0.3077E-04  0.5095E-04  0.6534E-05
    -16.148  0.2908E-04  0.1978E-04  0.2052E-05
    -16.046  0.0000E+00  0.0000E+00  0.0000E+00
    -15.945  0.0000E+00  0.0000E+00  0.0000E+00
    -15.843  0.0000E+00  0.0000E+00  0.0000E+00
    -15.741  0.0000E+00  0.0000E+00  0.0000E+00
    -15.639  0.0000E+00  0.0000E+00  0.0000E+00
    -15.538  0.0000E+00  0.0000E+00  0.0000E+00
    -15.436  0.0000E+00  0.0000E+00  0.0000E+00
    -15.334  0.0000E+00  0.0000E+00  0.0000E+00
    -15.232  0.0000E+00  0.0000E+00  0.0000E+00
    -15.131  0.0000E+00  0.0000E+00  0.0000E+00
    -15.029  0.0000E+00  0.0000E+00  0.0000E+00
    -14.927  0.0000E+00  0.0000E+00  0.0000E+00
    -14.826  0.0000E+00  0.0000E+00  0.0000E+00
    -14.724  0.0000E+00  0.0000E+00  0.0000E+00
    -14.622  0.0000E+00  0.0000E+00  0.0000E+00
    -14.520  0.0000E+00  0.0000E+00  0.0000E+00
    -14.419  0.2346E-14  0.2386E-29  0.3800E-17
    -14.317  0.3885E-03  0.2690E-04  0.9429E-06
    -14.215  0.1574E-02  0.1295E-02  0.3137E-04
    -14.113  0.1142E-07  0.1823E-02  0.4621E-04
    -14.012  0.3260E-03  0.2436E-02  0.1060E-03
    -13.910  0.1532E-02  0.3779E-02  0.3464E-03
    -13.808  0.6209E-03  0.2981E-02  0.3180E-03
    -13.707  0.6186E-03  0.7675E-03  0.1758E-03
    -13.605  0.2460E-03  0.5367E-03  0.6380E-04
    -13.503  0.0000E+00  0.0000E+00  0.0000E+00
    -13.401  0.0000E+00  0.0000E+00  0.0000E+00
    -13.300  0.0000E+00  0.0000E+00  0.0000E+00