 vasp.5.4.4.18Apr17-6-g9f103f2a35 (build Jun 22 2020 09:27:21) complex           
 executed on tx2_gcc-7.3_libsci-1 date 2021.09.22  08:32:00
 running on   64 total cores
 distrk:  each k-point on   64 cores,    1 groups
 distr:  one band on NCORES_PER_BAND=   8 cores,    8 groups


--------------------------------------------------------------------------------------------------------


 INCAR:
 POTCAR:    PAW_PBE Cs_sv 08Apr2002               
 POTCAR:    PAW_PBE Pb_d 06Sep2000                
 POTCAR:    PAW_PBE Br 06Sep2000                  
 POTCAR:    PAW_PBE Cs_sv 08Apr2002               
   SHA256 =  c1463496f0f6037ed62c6012a8013a89ee9ad6ffb38599dcd6c079e7ed31779b Cs
   COPYR  = (c) Copyright 08Apr2002 Georg Kresse                                
   COPYR  = This file is part of the software VASP. Any use, copying, and all ot
   COPYR  = If you do not have a valid VASP license, you may not use, copy or di
   VRHFIN =Cs: 5s5p6s                                                           
   LEXCH  = PE                                                                  
   EATOM  =   555.6835 eV,   40.8416 Ry                                         
                                                                                
   TITEL  = PAW_PBE Cs_sv 08Apr2002                                             
   LULTRA =        F    use ultrasoft PP ?                                      
   IUNSCR =        1    unscreen: 0-lin 1-nonlin 2-no                           
   RPACOR =    2.200    partial core radius                                     
   POMASS =  132.900; ZVAL   =    9.000    mass and valenz                      
   RCORE  =    2.500    outmost cutoff radius                                   
   RWIGS  =    2.500; RWIGS  =    1.323    wigner-seitz radius (au A)           
   ENMAX  =  220.318; ENMIN  =  165.238 eV                                      
   RCLOC  =    2.207    cutoff for local pot                                    
   LCOR   =        T    correct aug charges                                     
   LPAW   =        T    paw PP                                                  
   EAUG   =  407.933                                                            
   DEXC   =    0.000                                                            
   RMAX   =    2.554    core radius for proj-oper                               
   RAUG   =    1.300    factor for augmentation sphere                          
   RDEP   =    2.590    radius for radial grids                                 
   RDEPT  =    2.117    core radius for aug-charge                              
                                                                                
   Atomic configuration                                                         
   13 entries                                                                   
     n  l   j            E        occ.                                          
     1  0  0.50    -35790.1377   2.0000                                         
     2  0  0.50     -5613.6201   2.0000                                         
     2  1  1.50     -5035.0101   6.0000                                         
     3  0  0.50     -1167.0767   2.0000                                         
     3  1  1.50      -980.9754   6.0000                                         
     3  2  2.50      -708.0703  10.0000                                         
     4  0  0.50      -220.2386   2.0000                                         
     4  1  1.50      -160.7596   6.0000                                         
     4  2  2.50       -74.2354  10.0000                                         
     5  0  0.50       -26.7287   2.0000                                         
     6  0  0.50        -2.0862   1.0000                                         
     5  1  1.50       -13.5159   6.0000                                         
     5  2  2.50        -0.4136   0.0000                                         
   Description                                                                  
     l       E           TYP  RCUT    TYP  RCUT                                 
     0    -26.7287425     23  1.900                                             
     0     -2.0862306     23  1.900                                             
     1    -13.5158719     23  2.500                                             
     1     -2.7211652     23  2.500                                             
     2     -0.4136171     23  2.500                                             
  local pseudopotential read in
  partial core-charges read in
  partial kinetic energy density read in
  atomic valenz-charges read in
  non local Contribution for L=           0  read in
    real space projection operators read in
  non local Contribution for L=           0  read in
    real space projection operators read in
  non local Contribution for L=           1  read in
    real space projection operators read in
  non local Contribution for L=           1  read in
    real space projection operators read in
  non local Contribution for L=           2  read in
    real space projection operators read in
    PAW grid and wavefunctions read in

   number of l-projection  operators is LMAX  =           5
   number of lm-projection operators is LMMAX =          13

 POTCAR:    PAW_PBE Pb_d 06Sep2000                
   SHA256 =  fb885b08f0fba73a15f6a6b0e39bd200c13ec96ef97cf3ecd8e63bade5137abd Pb
   COPYR  = (c) Copyright 06Sep2000 Georg Kresse                                
   COPYR  = This file is part of the software VASP. Any use, copying, and all ot
   COPYR  = If you do not have a valid VASP license, you may not use, copy or di
   VRHFIN =Pb:                                                                  
   LEXCH  = PE                                                                  
   EATOM  =  1661.6185 eV,  122.1255 Ry                                         
                                                                                
   TITEL  = PAW_PBE Pb_d 06Sep2000                                              
   LULTRA =        F    use ultrasoft PP ?                                      
   IUNSCR =        1    unscreen: 0-lin 1-nonlin 2-no                           
   RPACOR =    2.200    partial core radius                                     
   POMASS =  207.200; ZVAL   =   14.000    mass and valenz                      
   RCORE  =    2.500    outmost cutoff radius                                   
   RWIGS  =    3.260; RWIGS  =    1.725    wigner-seitz radius (au A)           
   ENMAX  =  237.835; ENMIN  =  178.376 eV                                      
   ICORE  =        3    local potential                                         
   LCOR   =        T    correct aug charges                                     
   LPAW   =        T    paw PP                                                  
   EAUG   =  391.914                                                            
   DEXC   =    0.000                                                            
   RMAX   =    2.565    core radius for proj-oper                               
   RAUG   =    1.300    factor for augmentation sphere                          
   RDEP   =    2.643    radius for radial grids                                 
   RDEPT  =    2.092    core radius for aug-charge                              
                                                                                
   Atomic configuration                                                         
   16 entries                                                                   
     n  l   j            E        occ.                                          
     1  0  0.50    -88091.8466   2.0000                                         
     2  0  0.50    -15753.4197   2.0000                                         
     2  1  1.50    -13508.1797   6.0000                                         
     3  0  0.50     -3781.7194   2.0000                                         
     3  1  1.50     -3138.2529   6.0000                                         
     3  2  2.50     -2483.2977  10.0000                                         
     4  0  0.50      -856.2895   2.0000                                         
     4  1  1.50      -645.4942   6.0000                                         
     4  2  2.50      -401.8768  10.0000                                         
     4  3  3.50      -132.9059  14.0000                                         
     5  0  0.50      -144.0950   2.0000                                         
     5  1  1.50       -85.7879   6.0000                                         
     5  2  2.50       -21.1769  10.0000                                         
     6  0  0.50       -12.0372   2.0000                                         
     6  1  1.50        -3.4971   2.0000                                         
     5  3  2.50        -2.7212   0.0000                                         
   Description                                                                  
     l       E           TYP  RCUT    TYP  RCUT                                 
     2    -21.1768523     23  2.500                                             
     2      1.3605826     23  2.500                                             
     0    -12.0371562     23  2.500                                             
     0     13.6058260     23  2.500                                             
     1     -3.4971339     23  2.500                                             
     1     13.6058260     23  2.500                                             
     3     -1.3605826      7  2.500                                             
  local pseudopotential read in
  partial core-charges read in
  partial kinetic energy density read in
  atomic valenz-charges read in
  non local Contribution for L=           2  read in
    real space projection operators read in
  non local Contribution for L=           2  read in
    real space projection operators read in
  non local Contribution for L=           0  read in
    real space projection operators read in
  non local Contribution for L=           0  read in
    real space projection operators read in
  non local Contribution for L=           1  read in
    real space projection operators read in
  non local Contribution for L=           1  read in
    real space projection operators read in
    PAW grid and wavefunctions read in

   number of l-projection  operators is LMAX  =           6
   number of lm-projection operators is LMMAX =          18

 POTCAR:    PAW_PBE Br 06Sep2000                  
   SHA256 =  96a73d2954943bbee26f4990d676cc6c3bf44b8dd2c75cd4b3b825d8403f0103 Br
   COPYR  = (c) Copyright 06Sep2000 Georg Kresse                                
   COPYR  = This file is part of the software VASP. Any use, copying, and all ot
   COPYR  = If you do not have a valid VASP license, you may not use, copy or di
   VRHFIN =Br: s2p5                                                             
   LEXCH  = PE                                                                  
   EATOM  =   368.4488 eV,   27.0802 Ry                                         
                                                                                
   TITEL  = PAW_PBE Br 06Sep2000                                                
   LULTRA =        F    use ultrasoft PP ?                                      
   IUNSCR =        1    unscreen: 0-lin 1-nonlin 2-no                           
   RPACOR =    1.900    partial core radius                                     
   POMASS =   79.904; ZVAL   =    7.000    mass and valenz                      
   RCORE  =    2.100    outmost cutoff radius                                   
   RWIGS  =    2.200; RWIGS  =    1.164    wigner-seitz radius (au A)           
   ENMAX  =  216.285; ENMIN  =  162.214 eV                                      
   ICORE  =        3    local potential                                         
   LCOR   =        T    correct aug charges                                     
   LPAW   =        T    paw PP                                                  
   EAUG   =  503.852                                                            
   DEXC   =    0.000                                                            
   RMAX   =    2.139    core radius for proj-oper                               
   RAUG   =    1.300    factor for augmentation sphere                          
   RDEP   =    2.186    radius for radial grids                                 
   RDEPT  =    1.890    core radius for aug-charge                              
                                                                                
   Atomic configuration                                                         
   10 entries                                                                   
     n  l   j            E        occ.                                          
     1  0  0.50    -13316.2796   2.0000                                         
     2  0  0.50     -1732.8239   2.0000                                         
     2  1  1.50     -1528.2193   6.0000                                         
     3  0  0.50      -238.0460   2.0000                                         
     3  1  1.50      -173.4609   6.0000                                         
     3  2  2.50       -66.7132  10.0000                                         
     4  0  0.50       -20.1334   2.0000                                         
     4  1  0.50        -7.8591   5.0000                                         
     4  2  2.50        -8.1635   0.0000                                         
     4  3  2.50        -8.1635   0.0000                                         
   Description                                                                  
     l       E           TYP  RCUT    TYP  RCUT                                 
     0    -20.1333652     23  2.100                                             
     0    -21.4939478     23  2.100                                             
     1     -7.8591052     23  2.100                                             
     1     -3.1608434     23  2.100                                             
     2     -8.1634956     23  2.100                                             
     3     -1.3605826      7  2.100                                             
  local pseudopotential read in
  partial core-charges read in
  partial kinetic energy density read in
  atomic valenz-charges read in
  non local Contribution for L=           0  read in
    real space projection operators read in
  non local Contribution for L=           0  read in
    real space projection operators read in
  non local Contribution for L=           1  read in
    real space projection operators read in
  non local Contribution for L=           1  read in
    real space projection operators read in
  non local Contribution for L=           2  read in
    real space projection operators read in
    PAW grid and wavefunctions read in

   number of l-projection  operators is LMAX  =           5
   number of lm-projection operators is LMMAX =          13

 Optimization of the real space projectors (new method)

 maximal supplied QI-value         = 15.12
 optimisation between [QCUT,QGAM] = [  8.77, 17.69] = [ 21.53, 87.61] Ry 
 Optimized for a Real-space Cutoff    1.85 Angstroem

   l    n(q)    QCUT    max X(q) W(low)/X(q) W(high)/X(q)  e(spline) 
   0     10     8.768    25.322    0.81E-04    0.51E-04    0.48E-06
   0     10     8.768    99.187    0.78E-04    0.50E-04    0.47E-06
   1      9     8.768    11.761    0.21E-03    0.20E-03    0.37E-06
   1      9     8.768     8.275    0.24E-03    0.22E-03    0.41E-06
   2      9     8.768     3.829    0.23E-04    0.15E-03    0.18E-06
 Optimization of the real space projectors (new method)

 maximal supplied QI-value         = 15.12
 optimisation between [QCUT,QGAM] = [  8.77, 17.69] = [ 21.53, 87.61] Ry 
 Optimized for a Real-space Cutoff    1.59 Angstroem

   l    n(q)    QCUT    max X(q) W(low)/X(q) W(high)/X(q)  e(spline) 
   2      7     8.768     3.846    0.48E-04    0.11E-03    0.11E-06
   2      7     8.768     8.593    0.20E-03    0.22E-04    0.24E-06
   0      8     8.768    20.082    0.68E-04    0.88E-04    0.41E-07
   0      8     8.768     8.597    0.89E-04    0.13E-03    0.59E-07
   1      8     8.768    33.223    0.15E-03    0.53E-04    0.87E-07
   1      8     8.768    15.899    0.14E-03    0.44E-04    0.78E-07
 Optimization of the real space projectors (new method)

 maximal supplied QI-value         = 17.95
 optimisation between [QCUT,QGAM] = [  8.80, 17.59] = [ 21.67, 86.68] Ry 
 Optimized for a Real-space Cutoff    1.59 Angstroem

   l    n(q)    QCUT    max X(q) W(low)/X(q) W(high)/X(q)  e(spline) 
   0      8     8.797   175.082    0.82E-04    0.14E-03    0.89E-07
   0      8     8.797   174.004    0.79E-04    0.14E-03    0.86E-07
   1      8     8.797    54.315    0.16E-03    0.14E-04    0.30E-06
   1      8     8.797    42.441    0.16E-03    0.14E-04    0.30E-06
   2      7     8.797     3.596    0.92E-04    0.15E-03    0.85E-07
  PAW_PBE Cs_sv 08Apr2002               :
 energy of atom  1       EATOM= -555.6835
 kinetic energy error for atom=    0.0069 (will be added to EATOM!!)
  PAW_PBE Pb_d 06Sep2000                :
 energy of atom  2       EATOM=-1661.6185
 kinetic energy error for atom=    0.0498 (will be added to EATOM!!)
  PAW_PBE Br 06Sep2000                  :
 energy of atom  3       EATOM= -368.4488
 kinetic energy error for atom=    0.0072 (will be added to EATOM!!)


 POSCAR: Cs8 Pb8 Br24                            
  positions in direct lattice
  No initial velocities read in

 METAGGA = SCAN     LMAXTAU =  6    LMIXTAU =  F

 exchange correlation table for  LEXCH =        8
   RHO(1)=    0.500       N(1)  =     2000
   RHO(2)=  100.500       N(2)  =     4000

 VTST: version 3.2, (02/03/18)

 CHAIN: initializing optimizer
 
 OPT: Using VASP Conjugate-Gradient optimizer
 CHAIN: Read ICHAIN            0

 POSCAR: Cs8 Pb8 Br24                            
  positions in direct lattice
  No initial velocities read in



--------------------------------------------------------------------------------------------------------


 ion  position               nearest neighbor table
   1  0.250  0.250  0.250-
   2  0.250  0.250  0.750-
   3  0.250  0.750  0.250-
   4  0.250  0.750  0.750-
   5  0.750  0.250  0.250-
   6  0.750  0.250  0.750-
   7  0.750  0.750  0.250-
   8  0.750  0.750  0.750-
   9  0.000  0.000  0.000-  25 2.93  26 2.93  17 2.98  19 2.98  33 2.98  37 2.98
  10  0.000  0.000  0.500-  25 2.93  26 2.93  18 2.98  20 2.98  34 2.98  38 2.98
  11  0.000  0.500  0.000-  27 2.93  28 2.93  17 2.98  19 2.98  35 2.98  39 2.98
  12  0.000  0.500  0.500-  27 2.93  28 2.93  18 2.98  20 2.98  36 2.98  40 2.98
  13  0.500  0.000  0.000-  29 2.93  30 2.93  21 2.98  23 2.98  33 2.98  37 2.98
  14  0.500  0.000  0.500-  29 2.93  30 2.93  22 2.98  24 2.98  34 2.98  38 2.98
  15  0.500  0.500  0.000-  31 2.93  32 2.93  21 2.98  23 2.98  35 2.98  39 2.98
  16  0.500  0.500  0.500-  31 2.93  32 2.93  22 2.98  24 2.98  36 2.98  40 2.98
  17  0.955  0.250  0.000-   9 2.98  11 2.98
  18  0.045  0.250  0.500-  10 2.98  12 2.98
  19  0.045  0.750  0.000-   9 2.98  11 2.98
  20  0.955  0.750  0.500-  10 2.98  12 2.98
  21  0.545  0.250  0.000-  13 2.98  15 2.98
  22  0.455  0.250  0.500-  14 2.98  16 2.98
  23  0.455  0.750  0.000-  13 2.98  15 2.98
  24  0.545  0.750  0.500-  14 2.98  16 2.98
  25  0.000  0.000  0.250-   9 2.93  10 2.93
  26  0.000  0.000  0.750-   9 2.93  10 2.93
  27  0.000  0.500  0.250-  11 2.93  12 2.93
  28  0.000  0.500  0.750-  11 2.93  12 2.93
  29  0.500  0.000  0.250-  13 2.93  14 2.93
  30  0.500  0.000  0.750-  13 2.93  14 2.93
  31  0.500  0.500  0.250-  15 2.93  16 2.93
  32  0.500  0.500  0.750-  15 2.93  16 2.93
  33  0.250  0.045  0.000-   9 2.98  13 2.98
  34  0.250  0.955  0.500-  10 2.98  14 2.98
  35  0.250  0.455  0.000-  11 2.98  15 2.98
  36  0.250  0.545  0.500-  12 2.98  16 2.98
  37  0.750  0.955  0.000-   9 2.98  13 2.98
  38  0.750  0.045  0.500-  10 2.98  14 2.98
  39  0.750  0.545  0.000-  11 2.98  15 2.98
  40  0.750  0.455  0.500-  12 2.98  16 2.98

  LATTYP: Found a simple cubic cell.
 ALAT       =    11.7353520000
  
  Lattice vectors:
  
 A1 = (  11.7353520000,   0.0000000000,   0.0000000000)
 A2 = (   0.0000000000,  11.7353520000,   0.0000000000)
 A3 = (   0.0000000000,   0.0000000000,  11.7353520000)


Analysis of symmetry for initial positions (statically):
=====================================================================
 Subroutine PRICEL returns following result:
 
  LATTYP: Found a face centered cubic cell.
 ALAT       =    11.7353520000
  
  Lattice vectors:
  
 A1 = (   5.8676760000,   5.8676760000,   0.0000000000)
 A2 = (   5.8676760000,  -0.0000000000,  -5.8676760000)
 A3 = (   0.0000000000,   5.8676760000,  -5.8676760000)
 
   4 primitive cells build up your supercell.
 

 Routine SETGRP: Setting up the symmetry group for a 
 simple cubic supercell.


 Subroutine GETGRP returns: Found 16 space group operations
 (whereof  8 operations were pure point group operations)
 out of a pool of 48 trial point group operations.


The static configuration has the point symmetry C_4h.
 The point group associated with its full space group is D_4h.


Analysis of symmetry for dynamics (positions and initial velocities):
=====================================================================
 Subroutine PRICEL returns following result:
 
  LATTYP: Found a face centered cubic cell.
 ALAT       =    11.7353520000
  
  Lattice vectors:
  
 A1 = (   5.8676760000,   5.8676760000,   0.0000000000)
 A2 = (   5.8676760000,  -0.0000000000,  -5.8676760000)
 A3 = (   0.0000000000,   5.8676760000,  -5.8676760000)
 
   4 primitive cells build up your supercell.
 

 Routine SETGRP: Setting up the symmetry group for a 
 simple cubic supercell.


 Subroutine GETGRP returns: Found 16 space group operations
 (whereof  8 operations were pure point group operations)
 out of a pool of 48 trial point group operations.


The dynamic configuration has the point symmetry C_4h.
 The point group associated with its full space group is D_4h.


 Subroutine INISYM returns: Found 16 space group operations
 (whereof  8 operations are pure point group operations),
 and found     4 'primitive' translations



 KPOINTS: 1x1x1                                   

Automatic generation of k-mesh.
Space group operators:
 irot       det(A)        alpha          n_x          n_y          n_z        tau_x        tau_y        tau_z
    1     1.000000     0.000000     1.000000     0.000000     0.000000     0.000000     0.000000    -0.000000
    2    -1.000000     0.000000     1.000000     0.000000     0.000000     0.000000     0.000000    -0.000000
    3     1.000000    90.000000     0.000000     0.000000    -1.000000     0.000000     0.000000    -0.000000
    4    -1.000000    90.000000     0.000000     0.000000    -1.000000     0.000000     0.000000    -0.000000
    5     1.000000   180.000000     0.000000     0.000000     1.000000     0.000000     0.000000    -0.000000
    6    -1.000000   180.000000     0.000000     0.000000     1.000000     0.000000     0.000000    -0.000000
    7     1.000000    90.000000     0.000000     0.000000     1.000000     0.000000     0.000000    -0.000000
    8    -1.000000    90.000000     0.000000     0.000000     1.000000     0.000000     0.000000    -0.000000
    9     1.000000   180.000000     1.000000     0.000000     0.000000     0.500000     0.500000    -0.500000
   10    -1.000000   180.000000     1.000000     0.000000     0.000000     0.500000     0.500000    -0.500000
   11     1.000000   180.000000     0.707107     0.707107     0.000000     0.500000     0.500000    -0.500000
   12    -1.000000   180.000000     0.707107     0.707107     0.000000     0.500000     0.500000    -0.500000
   13     1.000000   180.000000     0.000000     1.000000     0.000000     0.500000     0.500000    -0.500000
   14    -1.000000   180.000000     0.000000     1.000000     0.000000     0.500000     0.500000    -0.500000
   15     1.000000   180.000000     0.707107    -0.707107     0.000000     0.500000     0.500000    -0.500000
   16    -1.000000   180.000000     0.707107    -0.707107     0.000000     0.500000     0.500000    -0.500000
 
 Subroutine IBZKPT returns following result:
 ===========================================
 
 Found      6 irreducible k-points:
 
 Following reciprocal coordinates:
            Coordinates               Weight
  0.000000  0.000000  0.000000      1.000000
  0.500000  0.000000  0.000000      2.000000
  0.500000  0.500000  0.000000      1.000000
  0.000000  0.000000  0.500000      1.000000
  0.500000  0.000000  0.500000      2.000000
  0.500000  0.500000  0.500000      1.000000
 
 Following cartesian coordinates:
            Coordinates               Weight
  0.000000  0.000000  0.000000      1.000000
  0.042606  0.000000  0.000000      2.000000
  0.042606  0.042606  0.000000      1.000000
  0.000000  0.000000  0.042606      1.000000
  0.042606  0.000000  0.042606      2.000000
  0.042606  0.042606  0.042606      1.000000
 


--------------------------------------------------------------------------------------------------------




 Dimension of arrays:
   k-points           NKPTS =      6   k-points in BZ     NKDIM =      6   number of bands    NBANDS=    216
   number of dos      NEDOS =    301   number of ions     NIONS =     40
   non local maximal  LDIM  =      6   non local SUM 2l+1 LMDIM =     18
   total plane-waves  NPLWV = 343000
   max r-space proj   IRMAX =   5660   max aug-charges    IRDMAX=  90331
   dimension x,y,z NGX =    70 NGY =   70 NGZ =   70
   dimension x,y,z NGXF=   140 NGYF=  140 NGZF=  140
   support grid    NGXF=   280 NGYF=  280 NGZF=  280
   ions per type =               8   8  24
   NGX,Y,Z   is equivalent  to a cutoff of   9.92,  9.92,  9.92 a.u.
   NGXF,Y,Z  is equivalent  to a cutoff of  19.83, 19.83, 19.83 a.u.

 SYSTEM =  CsPbBr3 cubic bulk                      
 POSCAR =  Cs8 Pb8 Br24                            

 Startparameter for this run:
   NWRITE =      2    write-flag & timer
   PREC   = accura    normal or accurate (medium, high low for compatibility)
   ISTART =      0    job   : 0-new  1-cont  2-samecut
   ICHARG =      2    charge: 1-file 2-atom 10-const
   ISPIN  =      1    spin polarized calculation?
   LNONCOLLINEAR =      F non collinear calculations
   LSORBIT =      F    spin-orbit coupling
   INIWAV =      1    electr: 0-lowe 1-rand  2-diag
   LASPH  =      T    aspherical Exc in radial PAW
   METAGGA=      F    non-selfconsistent MetaGGA calc.

 Electronic Relaxation 1
   ENCUT  =  300.0 eV  22.05 Ry    4.70 a.u.  16.57 16.57 16.57*2*pi/ulx,y,z
   ENINI  =  300.0     initial cutoff
   ENAUG  =  503.9 eV  augmentation charge cutoff
   NELM   =    200;   NELMIN=  2; NELMDL= -5     # of ELM steps 
   EDIFF  = 0.1E-05   stopping-criterion for ELM
   LREAL  =      T    real-space projection
   NLSPLINE    = F    spline interpolate recip. space projectors
   LCOMPAT=      F    compatible to vasp.4.4
   GGA_COMPAT  = T    GGA compatible to vasp.4.4-vasp.4.6
   LMAXPAW     = -100 max onsite density
   LMAXMIX     =    2 max onsite mixed and CHGCAR
   VOSKOWN=      0    Vosko Wilk Nusair interpolation
   ROPT   =   -0.00025  -0.00025  -0.00025
 Ionic relaxation
   EDIFFG = -.1E-01   stopping-criterion for IOM
   NSW    =      0    number of steps for IOM
   NBLOCK =      1;   KBLOCK =      1    inner block; outer block 
   IBRION =     -1    ionic relax: 0-MD 1-quasi-New 2-CG
   NFREE  =      1    steps in history (QN), initial steepest desc. (CG)
   ISIF   =      3    stress and relaxation
   IWAVPR =     10    prediction:  0-non 1-charg 2-wave 3-comb
   ISYM   =      2    0-nonsym 1-usesym 2-fastsym
   LCORR  =      T    Harris-Foulkes like correction to forces

   POTIM  = 0.5000    time-step for ionic-motion
   TEIN   =    0.0    initial temperature
   TEBEG  =    0.0;   TEEND  =   0.0 temperature during run
   SMASS  =  -3.00    Nose mass-parameter (am)
   estimated Nose-frequenzy (Omega)   =  0.10E-29 period in steps =****** mass=  -0.315E-26a.u.
   SCALEE = 1.0000    scale energy and forces
   NPACO  =    256;   APACO  = 16.0  distance and # of slots for P.C.
   PSTRESS=    0.0 pullay stress

  Mass of Ions in am
   POMASS = 132.90207.20 79.90
  Ionic Valenz
   ZVAL   =   9.00 14.00  7.00
  Atomic Wigner-Seitz radii
   RWIGS  =  -1.00 -1.00 -1.00
  virtual crystal weights 
   VCA    =   1.00  1.00  1.00
   NELECT =     352.0000    total number of electrons
   NUPDOWN=      -1.0000    fix difference up-down

 DOS related values:
   EMIN   =  10.00;   EMAX   =-10.00  energy-range for DOS
   EFERMI =   0.00
   ISMEAR =     0;   SIGMA  =   0.01  broadening in eV -4-tet -1-fermi 0-gaus

 Electronic relaxation 2 (details)
   IALGO  =     38    algorithm
   LDIAG  =      T    sub-space diagonalisation (order eigenvalues)
   LSUBROT=      F    optimize rotation matrix (better conditioning)
   TURBO    =      0    0=normal 1=particle mesh
   IRESTART =      0    0=no restart 2=restart with 2 vectors
   NREBOOT  =      0    no. of reboots
   NMIN     =      0    reboot dimension
   EREF     =   0.00    reference energy to select bands
   IMIX   =      4    mixing-type and parameters
     AMIX     =   0.40;   BMIX     =  1.00
     AMIX_MAG =   1.60;   BMIX_MAG =  1.00
     AMIN     =   0.10
     WC   =   100.;   INIMIX=   1;  MIXPRE=   1;  MAXMIX= -45

 Intra band minimization:
   WEIMIN = 0.0000     energy-eigenvalue tresh-hold
   EBREAK =  0.12E-08  absolut break condition
   DEPER  =   0.30     relativ break condition  

   TIME   =   0.40     timestep for ELM

  volume/ion in A,a.u.               =      40.40       272.66
  Fermi-wavevector in a.u.,A,eV,Ry     =   0.984977  1.861337 13.200107  0.970180
  Thomas-Fermi vector in A             =   2.116250

 Write flags
   LWAVE        =      F    write WAVECAR
   LDOWNSAMPLE  =      F    k-point downsampling of WAVECAR
   LCHARG       =      T    write CHGCAR
   LVTOT        =      F    write LOCPOT, total local potential
   LVHAR        =      T    write LOCPOT, Hartree potential only
   LELF         =      F    write electronic localiz. function (ELF)
   LORBIT       =     10    0 simple, 1 ext, 2 COOP (PROOUT), +10 PAW based schemes


 Dipole corrections
   LMONO  =      F    monopole corrections only (constant potential shift)
   LDIPOL =      F    correct potential (dipole corrections)
   IDIPOL =      0    1-x, 2-y, 3-z, 4-all directions 
   EPSILON=  1.0000000 bulk dielectric constant

 Exchange correlation treatment:
   GGA     =    --    GGA type
   LEXCH   =     8    internal setting for exchange type
   VOSKOWN=      0    Vosko Wilk Nusair interpolation
   LHFCALC =     F    Hartree Fock is set to
   LHFONE  =     F    Hartree Fock one center treatment
   AEXX    =    0.0000 exact exchange contribution

 Linear response parameters
   LEPSILON=     F    determine dielectric tensor
   LRPA    =     F    only Hartree local field effects (RPA)
   LNABLA  =     F    use nabla operator in PAW spheres
   LVEL    =     F    velocity operator in full k-point grid
   LINTERFAST=   F  fast interpolation
   KINTER  =     0    interpolate to denser k-point grid
   CSHIFT  =0.1000    complex shift for real part using Kramers Kronig
   OMEGAMAX=  -1.0    maximum frequency
   DEG_THRESHOLD= 0.2000000E-02 threshold for treating states as degnerate
   RTIME   =   -0.100 relaxation time in fs
  (WPLASMAI=    0.000 imaginary part of plasma frequency in eV, 0.658/RTIME)
   DFIELD  = 0.0000000 0.0000000 0.0000000 field for delta impulse in time

 Orbital magnetization related:
   ORBITALMAG=     F  switch on orbital magnetization
   LCHIMAG   =     F  perturbation theory with respect to B field
   DQ        =  0.001000  dq finite difference perturbation B field
   LLRAUG    =     F  two centre corrections for induced B field



--------------------------------------------------------------------------------------------------------


 Static calculation
 charge density and potential will be updated during run
 non-spin polarized calculation
 Variant of blocked Davidson
 Davidson routine will perform the subspace rotation
 perform sub-space diagonalisation
    after iterative eigenvector-optimisation
 modified Broyden-mixing scheme, WC =      100.0
 initial mixing is a Kerker type mixing with AMIX =  0.4000 and BMIX =      1.0000
 Hartree-type preconditioning will be used
 using additional bands           40
 real space projection scheme for non local part
 use partial core corrections
 calculate Harris-corrections to forces   (improved forces if not selfconsistent)
 use gradient corrections 
 use of overlap-Matrix (Vanderbilt PP)
 Gauss-broadening in eV      SIGMA  =   0.01


--------------------------------------------------------------------------------------------------------


  energy-cutoff  :      300.00
  volume of cell :     1616.17
      direct lattice vectors                 reciprocal lattice vectors
    11.735352000  0.000000000  0.000000000     0.085212612  0.000000000  0.000000000
     0.000000000 11.735352000  0.000000000     0.000000000  0.085212612  0.000000000
     0.000000000  0.000000000 11.735352000     0.000000000  0.000000000  0.085212612

  length of vectors
    11.735352000 11.735352000 11.735352000     0.085212612  0.085212612  0.085212612



 k-points in units of 2pi/SCALE and weight: 1x1x1                                   
   0.00000000  0.00000000  0.00000000       0.125
   0.04260631  0.00000000  0.00000000       0.250
   0.04260631  0.04260631  0.00000000       0.125
   0.00000000  0.00000000  0.04260631       0.125
   0.04260631  0.00000000  0.04260631       0.250
   0.04260631  0.04260631  0.04260631       0.125

 k-points in reciprocal lattice and weights: 1x1x1                                   
   0.00000000  0.00000000  0.00000000       0.125
   0.50000000  0.00000000  0.00000000       0.250
   0.50000000  0.50000000  0.00000000       0.125
   0.00000000  0.00000000  0.50000000       0.125
   0.50000000  0.00000000  0.50000000       0.250
   0.50000000  0.50000000  0.50000000       0.125

 position of ions in fractional coordinates (direct lattice) 
   0.25000000  0.25000000  0.25000000
   0.25000000  0.25000000  0.75000000
   0.25000000  0.75000000  0.25000000
   0.25000000  0.75000000  0.75000000
   0.75000000  0.25000000  0.25000000
   0.75000000  0.25000000  0.75000000
   0.75000000  0.75000000  0.25000000
   0.75000000  0.75000000  0.75000000
   0.00000000  0.00000000  0.00000000
   0.00000000  0.00000000  0.50000000
   0.00000000  0.50000000  0.00000000
   0.00000000  0.50000000  0.50000000
   0.50000000  0.00000000  0.00000000
   0.50000000  0.00000000  0.50000000
   0.50000000  0.50000000  0.00000000
   0.50000000  0.50000000  0.50000000
   0.95500000  0.25000000  0.00000000
   0.04500000  0.25000000  0.50000000
   0.04500000  0.75000000  0.00000000
   0.95500000  0.75000000  0.50000000
   0.54500000  0.25000000  0.00000000
   0.45500000  0.25000000  0.50000000
   0.45500000  0.75000000  0.00000000
   0.54500000  0.75000000  0.50000000
   0.00000000  0.00000000  0.25000000
   0.00000000  0.00000000  0.75000000
   0.00000000  0.50000000  0.25000000
   0.00000000  0.50000000  0.75000000
   0.50000000  0.00000000  0.25000000
   0.50000000  0.00000000  0.75000000
   0.50000000  0.50000000  0.25000000
   0.50000000  0.50000000  0.75000000
   0.25000000  0.04500000  0.00000000
   0.25000000  0.95500000  0.50000000
   0.25000000  0.45500000  0.00000000
   0.25000000  0.54500000  0.50000000
   0.75000000  0.95500000  0.00000000
   0.75000000  0.04500000  0.50000000
   0.75000000  0.54500000  0.00000000
   0.75000000  0.45500000  0.50000000

 position of ions in cartesian coordinates  (Angst):
   2.93383800  2.93383800  2.93383800
   2.93383800  2.93383800  8.80151400
   2.93383800  8.80151400  2.93383800
   2.93383800  8.80151400  8.80151400
   8.80151400  2.93383800  2.93383800
   8.80151400  2.93383800  8.80151400
   8.80151400  8.80151400  2.93383800
   8.80151400  8.80151400  8.80151400
   0.00000000  0.00000000  0.00000000
   0.00000000  0.00000000  5.86767600
   0.00000000  5.86767600  0.00000000
   0.00000000  5.86767600  5.86767600
   5.86767600  0.00000000  0.00000000
   5.86767600  0.00000000  5.86767600
   5.86767600  5.86767600  0.00000000
   5.86767600  5.86767600  5.86767600
  11.20726116  2.93383800  0.00000000
   0.52809084  2.93383800  5.86767600
   0.52809084  8.80151400  0.00000000
  11.20726116  8.80151400  5.86767600
   6.39576684  2.93383800  0.00000000
   5.33958516  2.93383800  5.86767600
   5.33958516  8.80151400  0.00000000
   6.39576684  8.80151400  5.86767600
   0.00000000  0.00000000  2.93383800
   0.00000000  0.00000000  8.80151400
   0.00000000  5.86767600  2.93383800
   0.00000000  5.86767600  8.80151400
   5.86767600  0.00000000  2.93383800
   5.86767600  0.00000000  8.80151400
   5.86767600  5.86767600  2.93383800
   5.86767600  5.86767600  8.80151400
   2.93383800  0.52809084  0.00000000
   2.93383800 11.20726116  5.86767600
   2.93383800  5.33958516  0.00000000
   2.93383800  6.39576684  5.86767600
   8.80151400 11.20726116  0.00000000
   8.80151400  0.52809084  5.86767600
   8.80151400  6.39576684  0.00000000
   8.80151400  5.33958516  5.86767600



--------------------------------------------------------------------------------------------------------


 k-point  1 :   0.0000 0.0000 0.0000  plane waves:   19093
 k-point  2 :   0.5000 0.0000 0.0000  plane waves:   19066
 k-point  3 :   0.5000 0.5000 0.0000  plane waves:   19072
 k-point  4 :   0.0000 0.0000 0.5000  plane waves:   19066
 k-point  5 :   0.5000 0.0000 0.5000  plane waves:   19072
 k-point  6 :   0.5000 0.5000 0.5000  plane waves:   19064

 maximum and minimum number of plane-waves per node :      2417     2354

 maximum number of plane-waves:     19093
 maximum index in each direction: 
   IXMAX=   16   IYMAX=   16   IZMAX=   16
   IXMIN=  -17   IYMIN=  -17   IZMIN=  -17


 real space projection operators:
  total allocation   :      16864.75 KBytes
  max/ min on nodes  :       2202.69       1834.00


 parallel 3D FFT for wavefunctions:
    minimum data exchange during FFTs selected (reduces bandwidth)
 parallel 3D FFT for charge:
    minimum data exchange during FFTs selected (reduces bandwidth)


 total amount of memory used by VASP MPI-rank0    58964. kBytes
=======================================================================

   base      :      30000. kBytes
   nonlr-proj:       6592. kBytes
   fftplans  :       8423. kBytes
   grid      :       7465. kBytes
   one-center:         77. kBytes
   wavefun   :       6407. kBytes

     INWAV:  cpu time    0.0000: real time    0.0000
 Broyden mixing: mesh for mixing (old mesh)
   NGX = 33   NGY = 33   NGZ = 33
  (NGX  =140   NGY  =140   NGZ  =140)
  gives a total of  35937 points

 initial charge density was supplied:
 charge density of overlapping atoms calculated
 number of electron     352.0000000 magnetization 
 keeping initial charge density in first step


--------------------------------------------------------------------------------------------------------


 Maximum index for non-local projection operator          712
 Maximum index for augmentation-charges         2962 (set IRDMAX)


--------------------------------------------------------------------------------------------------------


 First call to EWALD:  gamma=   0.151
 Maximum number of real-space cells 3x 3x 3
 Maximum number of reciprocal cells 3x 3x 3

    FEWALD:  cpu time    0.0036: real time    0.0036


--------------------------------------- Iteration      1(   1)  ---------------------------------------


    POTLOK:  cpu time    0.2594: real time    0.2768
    SETDIJ:  cpu time    1.1967: real time    1.1967
     EDDAV:  cpu time   12.8297: real time   12.8345
       DOS:  cpu time    0.0006: real time    0.0006
    --------------------------------------------
      LOOP:  cpu time   14.2864: real time   14.3087

 eigenvalue-minimisations  :  2688
 total energy-change (2. order) : 0.1342862E+04  (-0.1129259E+05)
 number of electron     352.0000000 magnetization 
 augmentation part      352.0000000 magnetization 

 Free energy of the ion-electron system (eV)
  ---------------------------------------------------
  alpha Z        PSCENC =       892.99476195
  Ewald energy   TEWEN  =    -18310.75299850
  -Hartree energ DENC   =     -7438.73468033
  -exchange      EXHF   =         0.00000000
  -V(xc)+E(xc)   XCENC  =       924.34732680
  PAW double counting   =     21633.96174531   -22707.92185401
  entropy T*S    EENTRO =        -0.00003439
  eigenvalues    EBANDS =      -231.59226094
  atomic energy  EATOM  =     26580.56019858
  Solvation  Ediel_sol  =         0.00000000
  ---------------------------------------------------
  free energy    TOTEN  =      1342.86220448 eV

  energy without entropy =     1342.86223887  energy(sigma->0) =     1342.86222168


--------------------------------------------------------------------------------------------------------




--------------------------------------- Iteration      1(   2)  ---------------------------------------


     EDDAV:  cpu time   14.2514: real time   14.2596
       DOS:  cpu time    0.0004: real time    0.0004
    --------------------------------------------
      LOOP:  cpu time   14.2518: real time   14.2600

 eigenvalue-minimisations  :  3152
 total energy-change (2. order) :-0.2474992E+04  (-0.2388910E+04)
 number of electron     352.0000000 magnetization 
 augmentation part      352.0000000 magnetization 

 Free energy of the ion-electron system (eV)
  ---------------------------------------------------
  alpha Z        PSCENC =       892.99476195
  Ewald energy   TEWEN  =    -18310.75299850
  -Hartree energ DENC   =     -7438.73468033
  -exchange      EXHF   =         0.00000000
  -V(xc)+E(xc)   XCENC  =       924.34732680
  PAW double counting   =     21633.96174531   -22707.92185401
  entropy T*S    EENTRO =        -0.00000000
  eigenvalues    EBANDS =     -2706.58379834
  atomic energy  EATOM  =     26580.56019858
  Solvation  Ediel_sol  =         0.00000000
  ---------------------------------------------------
  free energy    TOTEN  =     -1132.12929853 eV

  energy without entropy =    -1132.12929853  energy(sigma->0) =    -1132.12929853


--------------------------------------------------------------------------------------------------------




--------------------------------------- Iteration      1(   3)  ---------------------------------------


     EDDAV:  cpu time   15.1498: real time   15.1658
       DOS:  cpu time    0.0003: real time    0.0003
    --------------------------------------------
      LOOP:  cpu time   15.1501: real time   15.1662

 eigenvalue-minimisations  :  3480
 total energy-change (2. order) :-0.3635708E+03  (-0.3615362E+03)
 number of electron     352.0000000 magnetization 
 augmentation part      352.0000000 magnetization 

 Free energy of the ion-electron system (eV)
  ---------------------------------------------------
  alpha Z        PSCENC =       892.99476195
  Ewald energy   TEWEN  =    -18310.75299850
  -Hartree energ DENC   =     -7438.73468033
  -exchange      EXHF   =         0.00000000
  -V(xc)+E(xc)   XCENC  =       924.34732680
  PAW double counting   =     21633.96174531   -22707.92185401
  entropy T*S    EENTRO =        -0.00000000
  eigenvalues    EBANDS =     -3070.15460033
  atomic energy  EATOM  =     26580.56019858
  Solvation  Ediel_sol  =         0.00000000
  ---------------------------------------------------
  free energy    TOTEN  =     -1495.70010052 eV

  energy without entropy =    -1495.70010052  energy(sigma->0) =    -1495.70010052


--------------------------------------------------------------------------------------------------------




--------------------------------------- Iteration      1(   4)  ---------------------------------------


     EDDAV:  cpu time   13.9738: real time   14.0128
       DOS:  cpu time    0.0003: real time    0.0003
    --------------------------------------------
      LOOP:  cpu time   13.9741: real time   14.0132

 eigenvalue-minimisations  :  3080
 total energy-change (2. order) :-0.1227247E+02  (-0.1223078E+02)
 number of electron     352.0000000 magnetization 
 augmentation part      352.0000000 magnetization 

 Free energy of the ion-electron system (eV)
  ---------------------------------------------------
  alpha Z        PSCENC =       892.99476195
  Ewald energy   TEWEN  =    -18310.75299850
  -Hartree energ DENC   =     -7438.73468033
  -exchange      EXHF   =         0.00000000
  -V(xc)+E(xc)   XCENC  =       924.34732680
  PAW double counting   =     21633.96174531   -22707.92185401
  entropy T*S    EENTRO =        -0.00000000
  eigenvalues    EBANDS =     -3082.42707527
  atomic energy  EATOM  =     26580.56019858
  Solvation  Ediel_sol  =         0.00000000
  ---------------------------------------------------
  free energy    TOTEN  =     -1507.97257546 eV

  energy without entropy =    -1507.97257546  energy(sigma->0) =    -1507.97257546


--------------------------------------------------------------------------------------------------------




--------------------------------------- Iteration      1(   5)  ---------------------------------------


     EDDAV:  cpu time   15.0410: real time   15.0521
       DOS:  cpu time    0.0006: real time    0.0006
    CHARGE:  cpu time    3.0711: real time    3.0713
    MIXING:  cpu time    0.0017: real time    0.0017
    --------------------------------------------
      LOOP:  cpu time   18.1144: real time   18.1257

 eigenvalue-minimisations  :  3448
 total energy-change (2. order) :-0.5417388E+00  (-0.5414643E+00)
 number of electron     351.9999990 magnetization 
 augmentation part       -6.5202775 magnetization 

 Broyden mixing:
  rms(total) = 0.10316E+01    rms(broyden)= 0.10313E+01
  rms(prec ) = 0.13881E+01
  weight for this iteration     100.00

 Free energy of the ion-electron system (eV)
  ---------------------------------------------------
  alpha Z        PSCENC =       892.99476195
  Ewald energy   TEWEN  =    -18310.75299850
  -Hartree energ DENC   =     -7438.73468033
  -exchange      EXHF   =         0.00000000
  -V(xc)+E(xc)   XCENC  =       924.34732680
  PAW double counting   =     21633.96174531   -22707.92185401
  entropy T*S    EENTRO =        -0.00000000
  eigenvalues    EBANDS =     -3082.96881404
  atomic energy  EATOM  =     26580.56019858
  Solvation  Ediel_sol  =         0.00000000
  ---------------------------------------------------
  free energy    TOTEN  =     -1508.51431423 eV

  energy without entropy =    -1508.51431423  energy(sigma->0) =    -1508.51431423


--------------------------------------------------------------------------------------------------------




--------------------------------------- Iteration      1(   6)  ---------------------------------------


    POTLOK:  cpu time    0.2488: real time    0.3059
    SETDIJ:  cpu time    1.1943: real time    1.1943
     EDDAV:  cpu time   14.6812: real time   14.6818
       DOS:  cpu time    0.0005: real time    0.0005
    CHARGE:  cpu time    3.0978: real time    3.0979
    MIXING:  cpu time    0.0015: real time    0.0015
    --------------------------------------------
      LOOP:  cpu time   19.2241: real time   19.2819

 eigenvalue-minimisations  :  3344
 total energy-change (2. order) : 0.7892364E+02  (-0.2297766E+01)
 number of electron     351.9999990 magnetization 
 augmentation part       -5.0932181 magnetization 

 Broyden mixing:
  rms(total) = 0.73292E+00    rms(broyden)= 0.73282E+00
  rms(prec ) = 0.89581E+00
  weight for this iteration     100.00

 eigenvalues of (default mixing * dielectric matrix)
  average eigenvalue GAMMA=   1.2258
  1.2258

 Free energy of the ion-electron system (eV)
  ---------------------------------------------------
  alpha Z        PSCENC =       892.99476195
  Ewald energy   TEWEN  =    -18310.75299850
  -Hartree energ DENC   =     -7423.07693166
  -exchange      EXHF   =         0.00000000
  -V(xc)+E(xc)   XCENC  =       955.41766020
  PAW double counting   =     21987.41277043   -23060.45607223
  entropy T*S    EENTRO =        -0.00000000
  eigenvalues    EBANDS =     -3051.69006659
  atomic energy  EATOM  =     26580.56019858
  Solvation  Ediel_sol  =         0.00000000
  ---------------------------------------------------
  free energy    TOTEN  =     -1429.59067783 eV

  energy without entropy =    -1429.59067783  energy(sigma->0) =    -1429.59067783


--------------------------------------------------------------------------------------------------------




--------------------------------------- Iteration      1(   7)  ---------------------------------------


    POTLOK:  cpu time    0.2887: real time    0.2912
    SETDIJ:  cpu time    1.2020: real time    1.2021
     EDDAV:  cpu time   14.1960: real time   14.1967
       DOS:  cpu time    0.0004: real time    0.0004
    CHARGE:  cpu time    3.1045: real time    3.1045
    MIXING:  cpu time    0.0015: real time    0.0015
    --------------------------------------------
      LOOP:  cpu time   18.7931: real time   18.7964

 eigenvalue-minimisations  :  3168
 total energy-change (2. order) : 0.4803329E+00  (-0.7671737E+00)
 number of electron     351.9999990 magnetization 
 augmentation part       -4.5789846 magnetization 

 Broyden mixing:
  rms(total) = 0.36311E+00    rms(broyden)= 0.36310E+00
  rms(prec ) = 0.39767E+00
  weight for this iteration     100.00

 eigenvalues of (default mixing * dielectric matrix)
  average eigenvalue GAMMA=   1.3273
  1.3273  1.3273

 Free energy of the ion-electron system (eV)
  ---------------------------------------------------
  alpha Z        PSCENC =       892.99476195
  Ewald energy   TEWEN  =    -18310.75299850
  -Hartree energ DENC   =     -7466.25970332
  -exchange      EXHF   =         0.00000000
  -V(xc)+E(xc)   XCENC  =       960.94624299
  PAW double counting   =     22651.12549130   -23722.95560687
  entropy T*S    EENTRO =        -0.00000000
  eigenvalues    EBANDS =     -3014.76873101
  atomic energy  EATOM  =     26580.56019858
  Solvation  Ediel_sol  =         0.00000000
  ---------------------------------------------------
  free energy    TOTEN  =     -1429.11034488 eV

  energy without entropy =    -1429.11034488  energy(sigma->0) =    -1429.11034488


--------------------------------------------------------------------------------------------------------




--------------------------------------- Iteration      1(   8)  ---------------------------------------


    POTLOK:  cpu time    0.2555: real time    0.3052
    SETDIJ:  cpu time    1.1951: real time    1.1951
     EDDAV:  cpu time   14.1760: real time   14.1769
       DOS:  cpu time    0.0004: real time    0.0004
    CHARGE:  cpu time    3.1066: real time    3.1066
    MIXING:  cpu time    0.0017: real time    0.0017
    --------------------------------------------
      LOOP:  cpu time   18.7353: real time   18.7859

 eigenvalue-minimisations  :  3168
 total energy-change (2. order) :-0.1830173E+00  (-0.3813888E-01)
 number of electron     351.9999990 magnetization 
 augmentation part       -4.6538560 magnetization 

 Broyden mixing:
  rms(total) = 0.20956E+00    rms(broyden)= 0.20956E+00
  rms(prec ) = 0.23051E+00
  weight for this iteration     100.00

 eigenvalues of (default mixing * dielectric matrix)
  average eigenvalue GAMMA=   1.7431
  1.0951  1.3322  2.8018

 Free energy of the ion-electron system (eV)
  ---------------------------------------------------
  alpha Z        PSCENC =       892.99476195
  Ewald energy   TEWEN  =    -18310.75299850
  -Hartree energ DENC   =     -7471.74760317
  -exchange      EXHF   =         0.00000000
  -V(xc)+E(xc)   XCENC  =       961.75732007
  PAW double counting   =     22915.33656934   -23987.55045194
  entropy T*S    EENTRO =        -0.00000000
  eigenvalues    EBANDS =     -3009.89115851
  atomic energy  EATOM  =     26580.56019858
  Solvation  Ediel_sol  =         0.00000000
  ---------------------------------------------------
  free energy    TOTEN  =     -1429.29336219 eV

  energy without entropy =    -1429.29336219  energy(sigma->0) =    -1429.29336219


--------------------------------------------------------------------------------------------------------




--------------------------------------- Iteration      1(   9)  ---------------------------------------


    POTLOK:  cpu time    0.2880: real time    0.3042
    SETDIJ:  cpu time    1.1948: real time    1.1949
     EDDAV:  cpu time   13.3011: real time   13.3016
       DOS:  cpu time    0.0004: real time    0.0004
    CHARGE:  cpu time    3.1084: real time    3.1085
    MIXING:  cpu time    0.0015: real time    0.0015
    --------------------------------------------
      LOOP:  cpu time   17.8943: real time   17.9111

 eigenvalue-minimisations  :  2856
 total energy-change (2. order) :-0.8271140E-01  (-0.1561532E-01)
 number of electron     351.9999990 magnetization 
 augmentation part       -4.6981968 magnetization 

 Broyden mixing:
  rms(total) = 0.46709E-01    rms(broyden)= 0.46707E-01
  rms(prec ) = 0.49731E-01
  weight for this iteration     100.00

 eigenvalues of (default mixing * dielectric matrix)
  average eigenvalue GAMMA=   1.4728
  2.5698  1.2477  1.2477  0.8259

 Free energy of the ion-electron system (eV)
  ---------------------------------------------------
  alpha Z        PSCENC =       892.99476195
  Ewald energy   TEWEN  =    -18310.75299850
  -Hartree energ DENC   =     -7477.81102662
  -exchange      EXHF   =         0.00000000
  -V(xc)+E(xc)   XCENC  =       963.76306624
  PAW double counting   =     23281.65657021   -24354.72871567
  entropy T*S    EENTRO =        -0.00000000
  eigenvalues    EBANDS =     -3005.05792977
  atomic energy  EATOM  =     26580.56019858
  Solvation  Ediel_sol  =         0.00000000
  ---------------------------------------------------
  free energy    TOTEN  =     -1429.37607358 eV

  energy without entropy =    -1429.37607358  energy(sigma->0) =    -1429.37607358


--------------------------------------------------------------------------------------------------------




--------------------------------------- Iteration      1(  10)  ---------------------------------------


    POTLOK:  cpu time    0.2844: real time    0.3006
    SETDIJ:  cpu time    1.1947: real time    1.1948
     EDDAV:  cpu time   15.6949: real time   15.6954
       DOS:  cpu time    0.0004: real time    0.0004
    CHARGE:  cpu time    3.1070: real time    3.1071
    MIXING:  cpu time    0.0016: real time    0.0016
    --------------------------------------------
      LOOP:  cpu time   20.2830: real time   20.2998

 eigenvalue-minimisations  :  3696
 total energy-change (2. order) :-0.1230688E-02  (-0.9173935E-03)
 number of electron     351.9999990 magnetization 
 augmentation part       -4.6839478 magnetization 

 Broyden mixing:
  rms(total) = 0.27164E-01    rms(broyden)= 0.27163E-01
  rms(prec ) = 0.29795E-01
  weight for this iteration     100.00

 eigenvalues of (default mixing * dielectric matrix)
  average eigenvalue GAMMA=   1.5590
  2.3542  2.3542  1.1203  1.1203  0.8461

 Free energy of the ion-electron system (eV)
  ---------------------------------------------------
  alpha Z        PSCENC =       892.99476195
  Ewald energy   TEWEN  =    -18310.75299850
  -Hartree energ DENC   =     -7476.11668858
  -exchange      EXHF   =         0.00000000
  -V(xc)+E(xc)   XCENC  =       963.54495704
  PAW double counting   =     23240.08395149   -24313.18488703
  entropy T*S    EENTRO =        -0.00000000
  eigenvalues    EBANDS =     -3006.50659922
  atomic energy  EATOM  =     26580.56019858
  Solvation  Ediel_sol  =         0.00000000
  ---------------------------------------------------
  free energy    TOTEN  =     -1429.37730427 eV

  energy without entropy =    -1429.37730427  energy(sigma->0) =    -1429.37730427


--------------------------------------------------------------------------------------------------------




--------------------------------------- Iteration      1(  11)  ---------------------------------------


    POTLOK:  cpu time    0.2620: real time    0.2966
    SETDIJ:  cpu time    1.1955: real time    1.1955
     EDDAV:  cpu time   13.6224: real time   13.6229
       DOS:  cpu time    0.0005: real time    0.0005
    CHARGE:  cpu time    3.1163: real time    3.1163
    MIXING:  cpu time    0.0018: real time    0.0018
    --------------------------------------------
      LOOP:  cpu time   18.1984: real time   18.2336

 eigenvalue-minimisations  :  2968
 total energy-change (2. order) :-0.2848249E-02  (-0.2675734E-03)
 number of electron     351.9999990 magnetization 
 augmentation part       -4.6813236 magnetization 

 Broyden mixing:
  rms(total) = 0.98050E-02    rms(broyden)= 0.98049E-02
  rms(prec ) = 0.12038E-01
  weight for this iteration     100.00

 eigenvalues of (default mixing * dielectric matrix)
  average eigenvalue GAMMA=   1.5881
  2.6016  2.6016  1.2520  1.2520  0.9107  0.9107

 Free energy of the ion-electron system (eV)
  ---------------------------------------------------
  alpha Z        PSCENC =       892.99476195
  Ewald energy   TEWEN  =    -18310.75299850
  -Hartree energ DENC   =     -7473.84471952
  -exchange      EXHF   =         0.00000000
  -V(xc)+E(xc)   XCENC  =       963.45339568
  PAW double counting   =     23206.59155114   -24279.88017732
  entropy T*S    EENTRO =        -0.00000000
  eigenvalues    EBANDS =     -3008.50216453
  atomic energy  EATOM  =     26580.56019858
  Solvation  Ediel_sol  =         0.00000000
  ---------------------------------------------------
  free energy    TOTEN  =     -1429.38015252 eV

  energy without entropy =    -1429.38015252  energy(sigma->0) =    -1429.38015252


--------------------------------------------------------------------------------------------------------




--------------------------------------- Iteration      1(  12)  ---------------------------------------


    POTLOK:  cpu time    0.2730: real time    0.3020
    SETDIJ:  cpu time    1.1946: real time    1.1946
     EDDAV:  cpu time   13.4265: real time   13.4272
       DOS:  cpu time    0.0004: real time    0.0004
    CHARGE:  cpu time    3.1151: real time    3.1152
    MIXING:  cpu time    0.0017: real time    0.0017
    --------------------------------------------
      LOOP:  cpu time   18.0112: real time   18.0411

 eigenvalue-minimisations  :  2904
 total energy-change (2. order) :-0.6867947E-03  (-0.9855249E-04)
 number of electron     351.9999990 magnetization 
 augmentation part       -4.6852191 magnetization 

 Broyden mixing:
  rms(total) = 0.38729E-02    rms(broyden)= 0.38726E-02
  rms(prec ) = 0.42974E-02
  weight for this iteration     100.00

 eigenvalues of (default mixing * dielectric matrix)
  average eigenvalue GAMMA=   1.6335
  2.9918  2.5377  1.7301  1.2337  0.9854  0.9780  0.9780

 Free energy of the ion-electron system (eV)
  ---------------------------------------------------
  alpha Z        PSCENC =       892.99476195
  Ewald energy   TEWEN  =    -18310.75299850
  -Hartree energ DENC   =     -7473.99396485
  -exchange      EXHF   =         0.00000000
  -V(xc)+E(xc)   XCENC  =       963.59292298
  PAW double counting   =     23215.48875699   -24288.89683674
  entropy T*S    EENTRO =        -0.00000000
  eigenvalues    EBANDS =     -3008.37367972
  atomic energy  EATOM  =     26580.56019858
  Solvation  Ediel_sol  =         0.00000000
  ---------------------------------------------------
  free energy    TOTEN  =     -1429.38083932 eV

  energy without entropy =    -1429.38083932  energy(sigma->0) =    -1429.38083932


--------------------------------------------------------------------------------------------------------




--------------------------------------- Iteration      1(  13)  ---------------------------------------


    POTLOK:  cpu time    0.2633: real time    0.3226
    SETDIJ:  cpu time    1.1978: real time    1.1978
     EDDAV:  cpu time   14.6873: real time   14.6879
       DOS:  cpu time    0.0005: real time    0.0005
    CHARGE:  cpu time    3.1180: real time    3.1181
    MIXING:  cpu time    0.0019: real time    0.0019
    --------------------------------------------
      LOOP:  cpu time   19.2689: real time   19.3289

 eigenvalue-minimisations  :  3344
 total energy-change (2. order) :-0.5363277E-04  (-0.7718616E-05)
 number of electron     351.9999990 magnetization 
 augmentation part       -4.6848374 magnetization 

 Broyden mixing:
  rms(total) = 0.13508E-02    rms(broyden)= 0.13507E-02
  rms(prec ) = 0.14286E-02
  weight for this iteration     100.00

 eigenvalues of (default mixing * dielectric matrix)
  average eigenvalue GAMMA=   1.5846
  2.9983  2.5462  1.8163  1.2394  1.1190  1.1190  0.9782  0.8604

 Free energy of the ion-electron system (eV)
  ---------------------------------------------------
  alpha Z        PSCENC =       892.99476195
  Ewald energy   TEWEN  =    -18310.75299850
  -Hartree energ DENC   =     -7474.30241234
  -exchange      EXHF   =         0.00000000
  -V(xc)+E(xc)   XCENC  =       963.61693269
  PAW double counting   =     23211.88813132   -24285.29936805
  entropy T*S    EENTRO =        -0.00000000
  eigenvalues    EBANDS =     -3008.08613859
  atomic energy  EATOM  =     26580.56019858
  Solvation  Ediel_sol  =         0.00000000
  ---------------------------------------------------
  free energy    TOTEN  =     -1429.38089295 eV

  energy without entropy =    -1429.38089295  energy(sigma->0) =    -1429.38089295


--------------------------------------------------------------------------------------------------------




--------------------------------------- Iteration      1(  14)  ---------------------------------------


    POTLOK:  cpu time    0.2666: real time    0.3026
    SETDIJ:  cpu time    1.1992: real time    1.1992
     EDDAV:  cpu time   12.8857: real time   12.8861
       DOS:  cpu time    0.0004: real time    0.0004
    CHARGE:  cpu time    3.1140: real time    3.1141
    MIXING:  cpu time    0.0017: real time    0.0017
    --------------------------------------------
      LOOP:  cpu time   17.4676: real time   17.5042

 eigenvalue-minimisations  :  2704
 total energy-change (2. order) :-0.1263370E-04  (-0.8385560E-06)
 number of electron     351.9999990 magnetization 
 augmentation part       -4.6843786 magnetization 

 Broyden mixing:
  rms(total) = 0.58113E-03    rms(broyden)= 0.58111E-03
  rms(prec ) = 0.61613E-03
  weight for this iteration     100.00

 eigenvalues of (default mixing * dielectric matrix)
  average eigenvalue GAMMA=   1.6532
  2.8084  2.8084  2.0871  2.0871  0.8785  0.9731  0.9731  1.1315  1.1315

 Free energy of the ion-electron system (eV)
  ---------------------------------------------------
  alpha Z        PSCENC =       892.99476195
  Ewald energy   TEWEN  =    -18310.75299850
  -Hartree energ DENC   =     -7474.34457706
  -exchange      EXHF   =         0.00000000
  -V(xc)+E(xc)   XCENC  =       963.61877766
  PAW double counting   =     23211.64680830   -24285.05405460
  entropy T*S    EENTRO =        -0.00000000
  eigenvalues    EBANDS =     -3008.04982191
  atomic energy  EATOM  =     26580.56019858
  Solvation  Ediel_sol  =         0.00000000
  ---------------------------------------------------
  free energy    TOTEN  =     -1429.38090558 eV

  energy without entropy =    -1429.38090558  energy(sigma->0) =    -1429.38090558


--------------------------------------------------------------------------------------------------------




--------------------------------------- Iteration      1(  15)  ---------------------------------------


    POTLOK:  cpu time    0.2589: real time    0.3041
    SETDIJ:  cpu time    1.2052: real time    1.2053
     EDDAV:  cpu time   10.1980: real time   10.1984
       DOS:  cpu time    0.0004: real time    0.0004
    CHARGE:  cpu time    3.1169: real time    3.1171
    MIXING:  cpu time    0.0018: real time    0.0018
    --------------------------------------------
      LOOP:  cpu time   14.7813: real time   14.8272

 eigenvalue-minimisations  :  1752
 total energy-change (2. order) : 0.1489148E-05  (-0.8412864E-07)
 number of electron     351.9999990 magnetization 
 augmentation part       -4.6844878 magnetization 

 Broyden mixing:
  rms(total) = 0.10990E-03    rms(broyden)= 0.10988E-03
  rms(prec ) = 0.13956E-03
  weight for this iteration     100.00

 eigenvalues of (default mixing * dielectric matrix)
  average eigenvalue GAMMA=   1.6136
  3.0525  2.6120  2.4731  1.9157  1.1678  1.0650  1.0650  1.0351  0.9138  0.8361

 Free energy of the ion-electron system (eV)
  ---------------------------------------------------
  alpha Z        PSCENC =       892.99476195
  Ewald energy   TEWEN  =    -18310.75299850
  -Hartree energ DENC   =     -7474.34292455
  -exchange      EXHF   =         0.00000000
  -V(xc)+E(xc)   XCENC  =       963.61882718
  PAW double counting   =     23211.98902521   -24285.39404143
  entropy T*S    EENTRO =        -0.00000000
  eigenvalues    EBANDS =     -3008.05375253
  atomic energy  EATOM  =     26580.56019858
  Solvation  Ediel_sol  =         0.00000000
  ---------------------------------------------------
  free energy    TOTEN  =     -1429.38090409 eV

  energy without entropy =    -1429.38090409  energy(sigma->0) =    -1429.38090409


--------------------------------------------------------------------------------------------------------




--------------------------------------- Iteration      1(  16)  ---------------------------------------


    POTLOK:  cpu time    0.2767: real time    0.3034
    SETDIJ:  cpu time    1.1998: real time    1.1998
     EDDAV:  cpu time   10.0206: real time   10.0211
       DOS:  cpu time    0.0006: real time    0.0006
    CHARGE:  cpu time    3.1267: real time    3.1268
    MIXING:  cpu time    0.0023: real time    0.0023
    --------------------------------------------
      LOOP:  cpu time   14.6266: real time   14.6540

 eigenvalue-minimisations  :  1680
 total energy-change (2. order) : 0.5792443E-05  (-0.2749610E-07)
 number of electron     351.9999990 magnetization 
 augmentation part       -4.6844935 magnetization 

 Broyden mixing:
  rms(total) = 0.68846E-04    rms(broyden)= 0.68842E-04
  rms(prec ) = 0.81669E-04
  weight for this iteration     100.00

 eigenvalues of (default mixing * dielectric matrix)
  average eigenvalue GAMMA=   1.5983
  2.9770  2.5698  2.5698  1.9929  0.8947  1.0008  1.0008  1.1173  1.1173  1.1704
  1.1704

 Free energy of the ion-electron system (eV)
  ---------------------------------------------------
  alpha Z        PSCENC =       892.99476195
  Ewald energy   TEWEN  =    -18310.75299850
  -Hartree energ DENC   =     -7474.35932026
  -exchange      EXHF   =         0.00000000
  -V(xc)+E(xc)   XCENC  =       963.62015300
  PAW double counting   =     23211.97110596   -24285.37565188
  entropy T*S    EENTRO =        -0.00000000
  eigenvalues    EBANDS =     -3008.03914714
  atomic energy  EATOM  =     26580.56019858
  Solvation  Ediel_sol  =         0.00000000
  ---------------------------------------------------
  free energy    TOTEN  =     -1429.38089830 eV

  energy without entropy =    -1429.38089830  energy(sigma->0) =    -1429.38089830


--------------------------------------------------------------------------------------------------------




--------------------------------------- Iteration      1(  17)  ---------------------------------------


    POTLOK:  cpu time    0.2516: real time    0.3005
    SETDIJ:  cpu time    1.2013: real time    1.2013
     EDDAV:  cpu time    9.9418: real time    9.9422
       DOS:  cpu time    0.0004: real time    0.0004
    CHARGE:  cpu time    3.1323: real time    3.1324
    MIXING:  cpu time    0.0019: real time    0.0019
    --------------------------------------------
      LOOP:  cpu time   14.5293: real time   14.5787

 eigenvalue-minimisations  :  1648
 total energy-change (2. order) : 0.4776280E-05  (-0.6329045E-08)
 number of electron     351.9999990 magnetization 
 augmentation part       -4.6844970 magnetization 

 Broyden mixing:
  rms(total) = 0.35643E-04    rms(broyden)= 0.35642E-04
  rms(prec ) = 0.40333E-04
  weight for this iteration     100.00

 eigenvalues of (default mixing * dielectric matrix)
  average eigenvalue GAMMA=   1.6637
  3.3333  2.7229  2.7229  1.9644  1.6004  1.6004  1.0802  1.0802  1.0314  1.0314
  0.8987  0.8987

 Free energy of the ion-electron system (eV)
  ---------------------------------------------------
  alpha Z        PSCENC =       892.99476195
  Ewald energy   TEWEN  =    -18310.75299850
  -Hartree energ DENC   =     -7474.36285077
  -exchange      EXHF   =         0.00000000
  -V(xc)+E(xc)   XCENC  =       963.62016147
  PAW double counting   =     23211.97413547   -24285.37855075
  entropy T*S    EENTRO =        -0.00000000
  eigenvalues    EBANDS =     -3008.03575096
  atomic energy  EATOM  =     26580.56019858
  Solvation  Ediel_sol  =         0.00000000
  ---------------------------------------------------
  free energy    TOTEN  =     -1429.38089352 eV

  energy without entropy =    -1429.38089352  energy(sigma->0) =    -1429.38089352


--------------------------------------------------------------------------------------------------------




--------------------------------------- Iteration      1(  18)  ---------------------------------------


    POTLOK:  cpu time    0.2946: real time    0.3067
    SETDIJ:  cpu time    1.1948: real time    1.1949
     EDDAV:  cpu time    9.9376: real time    9.9381
       DOS:  cpu time    0.0003: real time    0.0003
    --------------------------------------------
      LOOP:  cpu time   11.4274: real time   11.4400

 eigenvalue-minimisations  :  1656
 total energy-change (2. order) :-0.2060415E-06  (-0.4557377E-08)
 number of electron     351.9999990 magnetization 
 augmentation part       -4.6844970 magnetization 

 Free energy of the ion-electron system (eV)
  ---------------------------------------------------
  alpha Z        PSCENC =       892.99476195
  Ewald energy   TEWEN  =    -18310.75299850
  -Hartree energ DENC   =     -7474.36607056
  -exchange      EXHF   =         0.00000000
  -V(xc)+E(xc)   XCENC  =       963.62047281
  PAW double counting   =     23211.92056317   -24285.32498914
  entropy T*S    EENTRO =        -0.00000000
  eigenvalues    EBANDS =     -3008.03283204
  atomic energy  EATOM  =     26580.56019858
  Solvation  Ediel_sol  =         0.00000000
  ---------------------------------------------------
  free energy    TOTEN  =     -1429.38089373 eV

  energy without entropy =    -1429.38089373  energy(sigma->0) =    -1429.38089373


--------------------------------------------------------------------------------------------------------




 average (electrostatic) potential at core
  the test charge radii are     1.1312  1.1541  1.0178
  (the norm of the test charge is              1.0000)
       1 -55.4568       2 -55.4568       3 -55.4568       4 -55.4568       5 -55.4568
       6 -55.4568       7 -55.4568       8 -55.4568       9-101.5103      10-101.5103
      11-101.5103      12-101.5103      13-101.5103      14-101.5103      15-101.5103
      16-101.5103      17 -68.9393      18 -68.9393      19 -68.9393      20 -68.9393
      21 -68.9393      22 -68.9393      23 -68.9393      24 -68.9393      25 -68.9983
      26 -68.9983      27 -68.9983      28 -68.9983      29 -68.9983      30 -68.9983
      31 -68.9983      32 -68.9983      33 -68.9393      34 -68.9393      35 -68.9393
      36 -68.9393      37 -68.9393      38 -68.9393      39 -68.9393      40 -68.9393



 E-fermi :   0.8657     XC(G=0):  -8.0416     alpha+bet : -7.0048


 k-point     1 :       0.0000    0.0000    0.0000
  band No.  band energies     occupation 
      1     -20.9661      2.00000
      2     -20.9651      2.00000
      3     -20.9651      2.00000
      4     -20.9645      2.00000
      5     -20.9642      2.00000
      6     -20.9636      2.00000
      7     -20.9636      2.00000
      8     -20.9623      2.00000
      9     -16.3871      2.00000
     10     -16.3822      2.00000
     11     -16.3822      2.00000
     12     -16.3601      2.00000
     13     -16.3588      2.00000
     14     -16.3586      2.00000
     15     -16.3320      2.00000
     16     -16.3320      2.00000
     17     -16.3072      2.00000
     18     -16.3026      2.00000
     19     -16.3026      2.00000
     20     -16.2701      2.00000
     21     -16.2673      2.00000
     22     -16.2673      2.00000
     23     -16.2590      2.00000
     24     -16.2586      2.00000
     25     -16.1811      2.00000
     26     -16.1808      2.00000
     27     -16.1803      2.00000
     28     -16.1803      2.00000
     29     -16.1801      2.00000
     30     -16.1801      2.00000
     31     -16.1791      2.00000
     32     -16.1790      2.00000
     33     -16.1782      2.00000
     34     -16.1782      2.00000
     35     -16.1779      2.00000
     36     -16.1779      2.00000
     37     -16.1774      2.00000
     38     -16.1774      2.00000
     39     -16.1774      2.00000
     40     -16.1774      2.00000
     41     -16.1771      2.00000
     42     -16.1771      2.00000
     43     -16.1770      2.00000
     44     -16.1770      2.00000
     45     -16.1761      2.00000
     46     -16.1761      2.00000
     47     -16.1761      2.00000
     48     -16.1761      2.00000
     49     -14.3709      2.00000
     50     -14.1758      2.00000
     51     -14.1758      2.00000
     52     -14.1386      2.00000
     53     -14.0554      2.00000
     54     -14.0554      2.00000
     55     -14.0541      2.00000
     56     -14.0510      2.00000
     57     -13.9865      2.00000
     58     -13.9865      2.00000
     59     -13.9772      2.00000
     60     -13.9772      2.00000
     61     -13.9745      2.00000
     62     -13.9745      2.00000
     63     -13.9706      2.00000
     64     -13.9706      2.00000
     65     -13.9629      2.00000
     66     -13.9058      2.00000
     67     -13.9058      2.00000
     68     -13.6834      2.00000
     69     -13.6833      2.00000
     70     -13.6761      2.00000
     71     -13.6761      2.00000
     72     -13.6749      2.00000
     73      -8.2226      2.00000
     74      -7.7079      2.00000
     75      -7.7079      2.00000
     76      -7.5756      2.00000
     77      -7.3827      2.00000
     78      -7.3827      2.00000
     79      -7.3562      2.00000
     80      -7.3562      2.00000
     81      -7.3484      2.00000
     82      -7.3484      2.00000
     83      -7.3388      2.00000
     84      -7.3363      2.00000
     85      -7.3363      2.00000
     86      -7.3344      2.00000
     87      -7.3344      2.00000
     88      -7.3290      2.00000
     89      -7.3249      2.00000
     90      -7.3249      2.00000
     91      -7.3240      2.00000
     92      -7.3240      2.00000
     93      -7.3162      2.00000
     94      -7.3162      2.00000
     95      -7.3152      2.00000
     96      -7.3152      2.00000
     97      -7.3119      2.00000
     98      -7.3119      2.00000
     99      -7.3075      2.00000
    100      -7.3053      2.00000
    101      -7.1254      2.00000
    102      -7.0083      2.00000
    103      -7.0083      2.00000
    104      -6.3514      2.00000
    105      -3.4551      2.00000
    106      -3.3801      2.00000
    107      -3.3801      2.00000
    108      -3.3057      2.00000
    109      -3.3057      2.00000
    110      -3.2503      2.00000
    111      -3.2212      2.00000
    112      -3.2212      2.00000
    113      -3.2182      2.00000
    114      -3.2182      2.00000
    115      -3.0505      2.00000
    116      -3.0505      2.00000
    117      -2.1474      2.00000
    118      -2.1474      2.00000
    119      -2.1167      2.00000
    120      -1.9381      2.00000
    121      -1.9381      2.00000
    122      -1.9198      2.00000
    123      -1.9198      2.00000
    124      -1.8941      2.00000
    125      -1.8617      2.00000
    126      -1.7214      2.00000
    127      -1.7214      2.00000
    128      -1.6144      2.00000
    129      -1.6144      2.00000
    130      -1.5209      2.00000
    131      -1.5209      2.00000
    132      -1.5150      2.00000
    133      -1.5150      2.00000
    134      -1.5076      2.00000
    135      -1.5076      2.00000
    136      -1.4273      2.00000
    137      -1.4273      2.00000
    138      -1.3898      2.00000
    139      -1.3891      2.00000
    140      -1.3835      2.00000
    141      -1.3835      2.00000
    142      -1.3755      2.00000
    143      -1.3755      2.00000
    144      -1.3682      2.00000
    145      -1.3471      2.00000
    146      -1.3454      2.00000
    147      -1.3454      2.00000
    148      -1.3379      2.00000
    149      -1.3379      2.00000
    150      -1.3214      2.00000
    151      -1.3214      2.00000
    152      -1.3092      2.00000
    153      -1.2679      2.00000
    154      -1.2679      2.00000
    155      -1.2675      2.00000
    156      -1.2675      2.00000
    157      -1.2463      2.00000
    158      -1.2463      2.00000
    159      -1.1648      2.00000
    160      -1.1648      2.00000
    161      -1.1460      2.00000
    162      -1.1251      2.00000
    163      -1.1251      2.00000
    164      -0.9047      2.00000
    165      -0.8818      2.00000
    166      -0.8399      2.00000
    167      -0.8399      2.00000
    168      -0.8294      2.00000
    169      -0.8294      2.00000
    170      -0.6581      2.00000
    171      -0.6581      2.00000
    172      -0.4200      2.00000
    173       0.0264      2.00000
    174       0.1131      2.00000
    175       0.1131      2.00000
    176       0.7518      2.00000
    177       2.8059      0.00000
    178       2.8401      0.00000
    179       2.8401      0.00000
    180       3.2112      0.00000
    181       3.2112      0.00000
    182       3.2544      0.00000
    183       3.2544      0.00000
    184       3.2884      0.00000
    185       3.2884      0.00000
    186       3.6810      0.00000
    187       3.7161      0.00000
    188       3.7161      0.00000
    189       4.6464      0.00000
    190       5.5674      0.00000
    191       5.8041      0.00000
    192       5.8041      0.00000
    193       5.9051      0.00000
    194       5.9677      0.00000
    195       6.1663      0.00000
    196       6.1663      0.00000
    197       6.2204      0.00000
    198       6.2870      0.00000
    199       6.2870      0.00000
    200       6.2890      0.00000
    201       6.2890      0.00000
    202       6.3442      0.00000
    203       6.3802      0.00000
    204       6.4674      0.00000
    205       6.4674      0.00000
    206       6.5647      0.00000
    207       6.5647      0.00000
    208       6.5737      0.00000
    209       6.5749      0.00000
    210       6.6407      0.00000
    211       6.7032      0.00000
    212       6.7106      0.00000
    213       6.7257      0.00000
    214       6.7270      0.00000
    215       6.7310      0.00000
    216       6.7557      0.00000

 k-point     2 :       0.5000    0.0000    0.0000
  band No.  band energies     occupation 
      1     -20.9657      2.00000
      2     -20.9657      2.00000
      3     -20.9644      2.00000
      4     -20.9644      2.00000
      5     -20.9639      2.00000
      6     -20.9639      2.00000
      7     -20.9631      2.00000
      8     -20.9631      2.00000
      9     -16.3836      2.00000
     10     -16.3836      2.00000
[...]
 total charge-density along one line

 pseudopotential strength for first ion, spin component:           1
 18.047  -4.725   0.000   0.000   0.000  -0.000  -0.000  -0.000
 -4.725   1.246  -0.000  -0.000  -0.000   0.000   0.000   0.000
  0.000  -0.000   2.297  -0.000  -0.000  -2.754   0.000   0.000
  0.000  -0.000  -0.000   2.294  -0.000   0.000  -2.751   0.000
  0.000  -0.000  -0.000  -0.000   2.297   0.000   0.000  -2.754
 -0.000   0.000  -2.754   0.000   0.000   3.271  -0.000  -0.000
 -0.000   0.000   0.000  -2.751   0.000  -0.000   3.268  -0.000
 -0.000   0.000   0.000   0.000  -2.754  -0.000  -0.000   3.271
 -0.000   0.000   0.000  -0.000   0.000  -0.000   0.000  -0.000
 -0.000   0.000   0.001   0.000  -0.000  -0.002  -0.000   0.000
 -0.001   0.000  -0.000   0.000  -0.000   0.000  -0.000   0.000
 -0.000   0.000  -0.000   0.000  -0.001   0.000  -0.000   0.002
  0.000  -0.000  -0.000  -0.001   0.000   0.000   0.002  -0.000
 total augmentation occupancy for first ion, spin component:           1
  1.907  -0.146   0.000   0.000   0.000   0.000   0.000   0.000  -0.000   0.000  -0.002   0.000   0.000
 -0.146   0.094   0.000   0.000   0.000   0.000   0.000   0.000  -0.000  -0.000   0.006  -0.000  -0.000
  0.000   0.000   2.016   0.000   0.000   0.003   0.000   0.000  -0.000   0.004  -0.000   0.000   0.000
  0.000   0.000   0.000   2.010   0.000   0.000  -0.002   0.000   0.000  -0.000   0.000  -0.000  -0.004
  0.000   0.000   0.000   0.000   2.016   0.000   0.000   0.003   0.000   0.000   0.000  -0.004   0.000
  0.000   0.000   0.003   0.000   0.000   0.005   0.000   0.000   0.000  -0.002   0.000  -0.000   0.000
  0.000   0.000   0.000  -0.002   0.000   0.000   0.008   0.000  -0.000  -0.000  -0.000   0.000   0.003
  0.000   0.000   0.000   0.000   0.003   0.000   0.000   0.005   0.000  -0.000   0.000   0.002  -0.000
 -0.000  -0.000  -0.000   0.000   0.000   0.000  -0.000   0.000   0.003   0.000  -0.000  -0.000  -0.000
  0.000  -0.000   0.004  -0.000   0.000  -0.002  -0.000  -0.000   0.000   0.005   0.000  -0.000  -0.000
 -0.002   0.006  -0.000   0.000   0.000   0.000  -0.000   0.000  -0.000   0.000   0.003  -0.000  -0.000
  0.000  -0.000   0.000  -0.000  -0.004  -0.000   0.000   0.002  -0.000  -0.000  -0.000   0.005   0.000
  0.000  -0.000   0.000  -0.004   0.000   0.000   0.003  -0.000  -0.000  -0.000  -0.000   0.000   0.002


------------------------ aborting loop because EDIFF is reached ----------------------------------------





 total charge     

# of ion       s       p       d       tot
------------------------------------------
    1        1.783   4.718   0.013   6.514
    2        1.783   4.718   0.013   6.514
    3        1.783   4.718   0.013   6.514
    4        1.783   4.718   0.013   6.514
    5        1.783   4.718   0.013   6.514
    6        1.783   4.718   0.013   6.514
    7        1.783   4.718   0.013   6.514
    8        1.783   4.718   0.013   6.514
    9        1.555   0.434   9.838  11.827
   10        1.555   0.434   9.838  11.827
   11        1.555   0.434   9.838  11.827
   12        1.555   0.434   9.838  11.827
   13        1.555   0.434   9.838  11.827
   14        1.555   0.434   9.838  11.827
   15        1.555   0.434   9.838  11.827
   16        1.555   0.434   9.838  11.827
   17        1.613   3.305   0.006   4.924
   18        1.613   3.305   0.006   4.924
   19        1.613   3.305   0.006   4.924
   20        1.613   3.305   0.006   4.924
   21        1.613   3.305   0.006   4.924
   22        1.613   3.305   0.006   4.924
   23        1.613   3.305   0.006   4.924
   24        1.613   3.305   0.006   4.924
   25        1.615   3.288   0.007   4.910
   26        1.615   3.288   0.007   4.910
   27        1.615   3.288   0.007   4.910
   28        1.615   3.288   0.007   4.910
   29        1.615   3.288   0.007   4.910
   30        1.615   3.288   0.007   4.910
   31        1.615   3.288   0.007   4.910
   32        1.615   3.288   0.007   4.910
   33        1.616   3.267   0.007   4.890
   34        1.616   3.267   0.007   4.890
   35        1.616   3.267   0.007   4.890
   36        1.616   3.267   0.007   4.890
   37        1.616   3.267   0.007   4.890
   38        1.616   3.267   0.007   4.890
   39        1.616   3.267   0.007   4.890
   40        1.616   3.267   0.007   4.890
--------------------------------------------------
tot         65.455 120.089  78.971 264.516

    CHARGE:  cpu time    0.4227: real time    0.4227
    FORLOC:  cpu time    0.0115: real time    0.0115
    FORNL :  cpu time    1.5729: real time    1.5730
    STRESS:  cpu time   40.0520: real time   40.0535
    FORCOR:  cpu time    0.2412: real time    0.2412
    FORHAR:  cpu time    0.0275: real time    0.0275
    MIXING:  cpu time    0.0019: real time    0.0019
    OFIELD:  cpu time    0.0000: real time    0.0000

  FORCE on cell =-STRESS in cart. coord.  units (eV):
  Direction    XX          YY          ZZ          XY          YZ          ZX
  --------------------------------------------------------------------------------------
  Alpha Z   892.99476   892.99476   892.99476
  Ewald   -6200.68812 -6200.68812 -5909.46213    -0.00000    -0.00000     0.00000
  Hartree  2458.07561  2458.07561  2558.21445    -0.00000    -0.00000    -0.00000
  E(xc)   -1478.70478 -1478.46971 -1477.76710    -0.00000    -0.00000    -0.00000
  Local   -2790.05796 -2790.05796 -3180.95972     0.00000    -0.00000    -0.00000
  n-local  1803.03419  1801.83207  1807.44961    -0.00000    -0.00000    -0.00000
  augment   811.93836   811.93836   811.72633     0.00000    -0.00007    -0.00007
  Kinetic  4496.66034  4507.50053  4505.00999     0.00000    -0.00001    -0.00000
  Fock        0.00000     0.00000     0.00000     0.00000     0.00000     0.00000
  -------------------------------------------------------------------------------------
  Total      -1.81103    -1.81103     7.20618     0.00000     0.00000     0.00000
  in kB      -1.79535    -1.79535     7.14376     0.00000     0.00000     0.00000
  external pressure =        1.18 kB  Pullay stress =        0.00 kB


 VOLUME and BASIS-vectors are now :
 -----------------------------------------------------------------------------
  energy-cutoff  :      300.00
  volume of cell :     1616.17
      direct lattice vectors                 reciprocal lattice vectors
    11.735352000  0.000000000  0.000000000     0.085212612  0.000000000  0.000000000
     0.000000000 11.735352000  0.000000000     0.000000000  0.085212612  0.000000000
     0.000000000  0.000000000 11.735352000     0.000000000  0.000000000  0.085212612

  length of vectors
    11.735352000 11.735352000 11.735352000     0.085212612  0.085212612  0.085212612


 FORCES acting on ions
    electron-ion (+dipol)            ewald-force                    non-local-force                 convergence-correction
 -----------------------------------------------------------------------------------------------
   0.106E-09 0.148E-09 -.858E-11   -.528E-14 -.231E-13 0.711E-14   -.207E-24 0.000E+00 -.266E-19   0.133E-12 0.885E-13 0.125E-12
   0.222E-10 0.678E-10 0.668E-10   -.107E-13 -.213E-13 0.124E-13   0.000E+00 0.207E-24 -.704E-19   0.379E-13 0.809E-13 -.815E-13
   -.854E-10 0.210E-09 0.625E-10   -.214E-13 -.151E-13 0.799E-14   0.000E+00 0.000E+00 0.648E-19   0.354E-13 -.347E-13 0.166E-12
   -.197E-10 0.160E-09 0.420E-10   -.293E-13 -.204E-13 0.000E+00   0.000E+00 0.000E+00 -.704E-19   0.416E-13 -.268E-13 -.124E-12
   0.197E-10 -.101E-09 -.784E-10   -.158E-13 -.711E-14 0.000E+00   0.000E+00 -.517E-25 -.419E-19   -.727E-13 0.677E-13 0.191E-12
   0.700E-10 -.979E-11 0.168E-09   0.180E-13 -.142E-13 0.142E-13   0.000E+00 0.000E+00 -.160E-19   0.258E-13 0.178E-12 -.164E-12
   0.142E-09 0.220E-09 0.432E-10   -.683E-14 -.284E-13 0.711E-14   -.207E-24 0.000E+00 -.272E-19   0.288E-13 -.792E-14 0.142E-12
   0.576E-10 0.102E-09 -.134E-09   0.105E-14 -.284E-13 0.107E-13   0.000E+00 0.207E-24 0.275E-19   0.174E-13 -.119E-12 -.116E-12
   -.123E-13 -.529E-14 -.417E-13   -.888E-15 0.466E-13 0.310E-13   0.000E+00 0.000E+00 -.181E-23   0.846E-13 0.249E-12 -.254E-12
   -.749E-14 -.211E-13 0.119E-11   -.107E-13 -.853E-13 0.327E-13   0.000E+00 0.000E+00 0.764E-24   0.159E-13 0.313E-12 -.162E-12
   -.179E-13 0.114E-11 0.580E-13   -.107E-13 -.888E-13 0.292E-13   0.000E+00 -.827E-24 0.151E-23   -.156E-13 -.291E-12 -.316E-12
   -.456E-13 0.116E-11 0.110E-11   0.284E-13 0.568E-13 0.310E-13   0.000E+00 -.414E-24 -.146E-23   -.419E-13 -.352E-12 -.942E-13
   0.114E-11 -.233E-13 0.630E-11   0.320E-13 -.715E-13 0.274E-13   0.000E+00 -.827E-24 0.153E-23   -.108E-12 0.363E-12 -.149E-12
   0.113E-11 -.533E-14 -.770E-11   -.391E-13 0.711E-14 0.292E-13   0.000E+00 -.414E-24 -.172E-23   -.328E-13 0.349E-12 -.251E-12
   0.354E-11 -.343E-11 0.187E-11   0.409E-13 0.142E-13 0.257E-13   -.103E-24 -.414E-24 -.827E-24   -.199E-13 -.424E-12 -.265E-12
   0.123E-11 -.173E-11 -.135E-11   0.000E+00 -.533E-13 0.273E-13   0.000E+00 -.827E-24 0.117E-23   0.737E-14 -.403E-12 -.141E-12
   0.260E+02 0.299E-11 0.123E-07   -.262E+02 0.329E-13 -.545E-14   0.182E+00 -.827E-24 -.172E-24   0.203E-05 0.512E-14 -.398E-13
   -.260E+02 -.103E-12 -.123E-07   0.262E+02 0.817E-13 -.730E-14   -.182E+00 -.827E-24 0.636E-25   -.203E-05 0.604E-13 -.419E-13
   -.260E+02 0.737E-12 -.123E-07   0.262E+02 0.870E-13 -.815E-14   -.182E+00 0.827E-24 0.651E-25   -.203E-05 -.580E-13 -.245E-13
   0.260E+02 0.128E-11 0.123E-07   -.262E+02 0.462E-13 -.102E-14   0.182E+00 0.827E-24 -.833E-25   0.203E-05 -.131E-12 -.656E-13
   -.260E+02 0.373E-11 -.123E-07   0.262E+02 0.595E-13 -.117E-13   -.182E+00 0.827E-24 0.129E-24   -.203E-05 0.588E-13 0.156E-13
   0.260E+02 0.274E-11 0.123E-07   -.262E+02 0.497E-13 -.725E-14   0.182E+00 -.827E-24 -.855E-25   0.203E-05 0.246E-13 -.897E-13
   0.260E+02 -.269E-11 0.123E-07   -.262E+02 0.364E-13 -.811E-14   0.182E+00 -.879E-24 -.167E-24   0.203E-05 -.944E-13 -.360E-14
   -.260E+02 0.321E-12 -.123E-07   0.262E+02 0.675E-13 -.728E-14   -.182E+00 -.827E-24 0.499E-25   -.203E-05 -.767E-13 -.836E-13
   0.325E-12 -.469E-14 0.350E-13   -.497E-13 -.844E-14 -.391E-13   0.414E-24 0.414E-24 -.384E-25   0.348E-13 0.162E-12 0.142E-12
   -.326E-12 0.416E-14 0.791E-13   -.497E-13 -.844E-14 -.329E-13   -.207E-24 -.517E-24 -.128E-25   0.495E-13 0.145E-12 0.551E-15
   -.320E-12 0.126E-12 0.961E-14   -.533E-13 -.888E-14 -.355E-13   0.620E-24 0.620E-24 -.253E-25   -.634E-14 -.149E-12 0.197E-12
   0.305E-12 0.845E-13 0.263E-13   -.391E-13 -.115E-13 -.355E-13   -.414E-24 -.414E-24 0.466E-26   0.216E-13 -.133E-12 -.545E-13
   -.214E-12 -.156E-14 -.711E-11   -.346E-13 -.235E-13 -.320E-13   -.207E-24 -.517E-24 -.325E-25   0.149E-13 0.174E-12 0.159E-12
   0.428E-12 -.141E-14 0.201E-11   -.560E-13 -.249E-13 -.355E-13   -.414E-24 0.207E-24 0.107E-25   -.111E-13 0.201E-12 -.180E-13
   0.427E-12 -.200E-11 -.406E-11   -.249E-13 -.622E-14 -.320E-13   0.124E-23 -.414E-24 -.374E-25   0.410E-13 -.170E-12 0.147E-12
   -.197E-12 -.418E-12 -.292E-12   -.320E-13 -.888E-14 -.320E-13   -.207E-24 0.207E-24 -.188E-25   0.228E-13 -.198E-12 -.252E-14
   0.189E-13 -.260E+02 -.123E-07   0.545E-13 0.262E+02 0.107E-14   0.000E+00 -.182E+00 0.115E-25   0.190E-13 -.203E-05 -.146E-14
   -.220E-13 0.260E+02 0.123E-07   0.345E-13 -.262E+02 0.103E-13   -.414E-24 0.182E+00 -.432E-26   0.106E-14 0.203E-05 -.858E-13
   -.169E-13 0.260E+02 0.123E-07   0.363E-13 -.262E+02 0.390E-14   0.000E+00 0.182E+00 0.124E-24   0.310E-13 0.203E-05 -.502E-13
   0.199E-13 -.260E+02 -.123E-07   0.279E-13 0.262E+02 0.332E-14   -.124E-23 -.182E+00 0.887E-24   -.117E-13 -.203E-05 -.366E-13
   0.237E-16 0.260E+02 0.123E-07   0.233E-14 -.262E+02 0.726E-14   0.000E+00 0.182E+00 -.109E-24   -.756E-13 0.203E-05 0.181E-13
   0.468E-13 -.260E+02 -.123E-07   0.277E-13 0.262E+02 0.315E-14   -.123E-23 -.182E+00 0.862E-24   -.796E-13 -.203E-05 -.881E-13
   0.444E-13 -.260E+02 -.123E-07   0.347E-13 0.262E+02 0.385E-14   0.000E+00 -.182E+00 -.439E-24   -.803E-13 -.203E-05 -.108E-13
   0.563E-14 0.260E+02 0.123E-07   0.574E-13 -.262E+02 0.686E-14   -.414E-24 0.182E+00 -.378E-25   -.655E-13 0.203E-05 -.608E-13
 -----------------------------------------------------------------------------------------------
   0.321E-09 0.807E-09 0.149E-09   -.710E-13 -.355E-14 0.185E-14   -.194E-15 -.222E-15 -.160E-18   0.654E-13 -.163E-12 -.157E-11


 POSITION                                       TOTAL-FORCE (eV/Angst)
 -----------------------------------------------------------------------------------
      2.93384      2.93384      2.93384         0.000000      0.000000      0.000000
      2.93384      2.93384      8.80151         0.000000      0.000000      0.000000
      2.93384      8.80151      2.93384        -0.000000      0.000000      0.000000
      2.93384      8.80151      8.80151        -0.000000      0.000000      0.000000
      8.80151      2.93384      2.93384        -0.000000      0.000000      0.000000
      8.80151      2.93384      8.80151        -0.000000      0.000000      0.000000
      8.80151      8.80151      2.93384         0.000000      0.000000      0.000000
      8.80151      8.80151      8.80151        -0.000000      0.000000      0.000000
      0.00000      0.00000      0.00000        -0.000000      0.000000      0.000000
      0.00000      0.00000      5.86768         0.000000      0.000000      0.000000
      0.00000      5.86768      0.00000         0.000000      0.000000      0.000000
      0.00000      5.86768      5.86768         0.000000      0.000000      0.000000
      5.86768      0.00000      0.00000        -0.000000      0.000000      0.000000
      5.86768      0.00000      5.86768        -0.000000      0.000000      0.000000
      5.86768      5.86768      0.00000         0.000000      0.000000      0.000000
      5.86768      5.86768      5.86768         0.000000      0.000000      0.000000
     11.20726      2.93384      0.00000        -0.045414      0.000000     -0.000000
      0.52809      2.93384      5.86768         0.045414      0.000000      0.000000
      0.52809      8.80151      0.00000         0.045414      0.000000     -0.000000
     11.20726      8.80151      5.86768        -0.045414      0.000000      0.000000
      6.39577      2.93384      0.00000         0.045414      0.000000     -0.000000
      5.33959      2.93384      5.86768        -0.045414      0.000000     -0.000000
      5.33959      8.80151      0.00000        -0.045414      0.000000     -0.000000
      6.39577      8.80151      5.86768         0.045414      0.000000      0.000000
      0.00000      0.00000      2.93384        -0.000000      0.000000      0.000000
      0.00000      0.00000      8.80151         0.000000      0.000000      0.000000
      0.00000      5.86768      2.93384        -0.000000      0.000000      0.000000
      0.00000      5.86768      8.80151         0.000000      0.000000      0.000000
      5.86768      0.00000      2.93384         0.000000      0.000000      0.000000
      5.86768      0.00000      8.80151         0.000000      0.000000      0.000000
      5.86768      5.86768      2.93384         0.000000      0.000000      0.000000
      5.86768      5.86768      8.80151        -0.000000      0.000000      0.000000
      2.93384      0.52809      0.00000        -0.000000      0.045414     -0.000000
      2.93384     11.20726      5.86768        -0.000000     -0.045414      0.000000
      2.93384      5.33959      0.00000        -0.000000     -0.045414      0.000000
      2.93384      6.39577      5.86768        -0.000000      0.045414      0.000000
      8.80151     11.20726      0.00000         0.000000     -0.045414     -0.000000
      8.80151      0.52809      5.86768         0.000000      0.045414     -0.000000
      8.80151      6.39577      0.00000        -0.000000      0.045414     -0.000000
      8.80151      5.33959      5.86768         0.000000     -0.045414      0.000000
 -----------------------------------------------------------------------------------
    total drift:                                0.000000      0.000000      0.000000


--------------------------------------------------------------------------------------------------------



  FREE ENERGIE OF THE ION-ELECTRON SYSTEM (eV)
  ---------------------------------------------------
  free  energy   TOTEN  =     -1429.38089373 eV

  energy  without entropy=    -1429.38089373  energy(sigma->0) =    -1429.38089373



--------------------------------------------------------------------------------------------------------


    POTLOK:  cpu time    1.4320: real time    1.4322


--------------------------------------------------------------------------------------------------------


 stress matrix after NEB project (eV)
     -1.81103      0.00000      0.00000
      0.00000     -1.81103      0.00000
      0.00000      0.00000      7.20618
  FORCES: max atom, RMS     0.045414    0.028723
  FORCE total and by dimension    0.181657    0.045414
  Stress total and by dimension    7.647786    7.206176
     LOOP+:  cpu time  348.8339: real time  349.8061
    4ORBIT:  cpu time    0.0000: real time    0.0000



 total charge     

# of ion       s       p       d       tot
------------------------------------------
    1        1.783   4.718   0.013   6.514
    2        1.783   4.718   0.013   6.514
    3        1.783   4.718   0.013   6.514
    4        1.783   4.718   0.013   6.514
    5        1.783   4.718   0.013   6.514
    6        1.783   4.718   0.013   6.514
    7        1.783   4.718   0.013   6.514
    8        1.783   4.718   0.013   6.514
    9        1.555   0.434   9.838  11.827
   10        1.555   0.434   9.838  11.827
   11        1.555   0.434   9.838  11.827
   12        1.555   0.434   9.838  11.827
   13        1.555   0.434   9.838  11.827
   14        1.555   0.434   9.838  11.827
   15        1.555   0.434   9.838  11.827
   16        1.555   0.434   9.838  11.827
   17        1.613   3.305   0.006   4.924
   18        1.613   3.305   0.006   4.924
   19        1.613   3.305   0.006   4.924
   20        1.613   3.305   0.006   4.924
   21        1.613   3.305   0.006   4.924
   22        1.613   3.305   0.006   4.924
   23        1.613   3.305   0.006   4.924
   24        1.613   3.305   0.006   4.924
   25        1.615   3.288   0.007   4.910
   26        1.615   3.288   0.007   4.910
   27        1.615   3.288   0.007   4.910
   28        1.615   3.288   0.007   4.910
   29        1.615   3.288   0.007   4.910
   30        1.615   3.288   0.007   4.910
   31        1.615   3.288   0.007   4.910
   32        1.615   3.288   0.007   4.910
   33        1.616   3.267   0.007   4.890
   34        1.616   3.267   0.007   4.890
   35        1.616   3.267   0.007   4.890
   36        1.616   3.267   0.007   4.890
   37        1.616   3.267   0.007   4.890
   38        1.616   3.267   0.007   4.890
   39        1.616   3.267   0.007   4.890
   40        1.616   3.267   0.007   4.890
--------------------------------------------------
tot         65.455 120.089  78.971 264.516


 total amount of memory used by VASP MPI-rank0    58964. kBytes
=======================================================================

   base      :      30000. kBytes
   nonlr-proj:       6592. kBytes
   fftplans  :       8423. kBytes
   grid      :       7465. kBytes
   one-center:         77. kBytes
   wavefun   :       6407. kBytes

  
  
 General timing and accounting informations for this job:
 ========================================================
  
                  Total CPU time used (sec):      367.689
                            User time (sec):      364.221
                          System time (sec):        3.468
                         Elapsed time (sec):      369.361
  
                   Maximum memory used (kb):      127836.
                   Average memory used (kb):           0.
  
                          Minor page faults:       240784
                          Major page faults:            0
                 Voluntary context switches:         1825
