CsPbBr3 cubic bulk                      
           1
    11.735352    0.000000    0.000000
     0.000000   11.735352    0.000000
     0.000000    0.000000   11.735352
   Cs   Pb   Br
   8   8  24
Direct configuration=     1
   0.25000000  0.25000000  0.25000000
   0.25000000  0.25000000  0.75000000
   0.25000000  0.75000000  0.25000000
   0.25000000  0.75000000  0.75000000
   0.75000000  0.25000000  0.25000000
   0.75000000  0.25000000  0.75000000
   0.75000000  0.75000000  0.25000000
   0.75000000  0.75000000  0.75000000
   0.00000000  0.00000000  0.00000000
   0.00000000  0.00000000  0.50000000
   0.00000000  0.50000000  0.00000000
   0.00000000  0.50000000  0.50000000
   0.50000000  0.00000000  0.00000000
   0.50000000  0.00000000  0.50000000
   0.50000000  0.50000000  0.00000000
   0.50000000  0.50000000  0.50000000
   0.95500000  0.25000000  0.00000000
   0.04500000  0.25000000  0.50000000
   0.04500000  0.75000000  0.00000000
   0.95500000  0.75000000  0.50000000
   0.54500000  0.25000000  0.00000000
   0.45500000  0.25000000  0.50000000
   0.45500000  0.75000000  0.00000000
   0.54500000  0.75000000  0.50000000
   0.00000000  0.00000000  0.25000000
   0.00000000  0.00000000  0.75000000
   0.00000000  0.50000000  0.25000000
   0.00000000  0.50000000  0.75000000
   0.50000000  0.00000000  0.25000000
   0.50000000  0.00000000  0.75000000
   0.50000000  0.50000000  0.25000000
   0.50000000  0.50000000  0.75000000
   0.25000000  0.04500000  0.00000000
   0.25000000  0.95500000  0.50000000
   0.25000000  0.45500000  0.00000000
   0.25000000  0.54500000  0.50000000
   0.75000000  0.95500000  0.00000000
   0.75000000  0.04500000  0.50000000
   0.75000000  0.54500000  0.00000000
   0.75000000  0.45500000  0.50000000
