  40  40   1   0
  0.4040437E+02  0.1173535E-08  0.1173535E-08  0.1173535E-08  0.5000000E-15
   1.0000000000000000E-004
  CAR 
 CsPbBr3 cubic bulk                      
      8.27988562    -22.05980027  301      0.23986886      1.00000000
    -22.060  0.0000E+00  0.0000E+00
    -21.959  0.0000E+00  0.0000E+00
    -21.858  0.0000E+00  0.0000E+00
    -21.756  0.0000E+00  0.0000E+00
    -21.655  0.0000E+00  0.0000E+00
    -21.554  0.0000E+00  0.0000E+00
    -21.453  0.0000E+00  0.0000E+00
    -21.352  0.0000E+00  0.0000E+00
    -21.251  0.0000E+00  0.0000E+00
    -21.150  0.0000E+00  0.0000E+00
    -21.048  0.0000E+00  0.0000E+00
    -20.947  0.0000E+00  0.0000E+00
    -20.846  0.0000E+00  0.0000E+00
    -20.745  0.0000E+00  0.0000E+00
    -20.644  0.1582E+03  0.1600E+02
    -20.543  0.0000E+00  0.1600E+02
    -20.442  0.0000E+00  0.1600E+02
    -20.341  0.0000E+00  0.1600E+02
    -20.239  0.0000E+00  0.1600E+02
    -20.138  0.0000E+00  0.1600E+02
    -20.037  0.0000E+00  0.1600E+02
    -19.936  0.0000E+00  0.1600E+02
    -19.835  0.0000E+00  0.1600E+02
    -19.734  0.0000E+00  0.1600E+02
    -19.633  0.0000E+00  0.1600E+02
    -19.531  0.0000E+00  0.1600E+02
    -19.430  0.0000E+00  0.1600E+02
    -19.329  0.0000E+00  0.1600E+02
    -19.228  0.0000E+00  0.1600E+02
    -19.127  0.0000E+00  0.1600E+02
    -19.026  0.0000E+00  0.1600E+02
    -18.925  0.0000E+00  0.1600E+02
    -18.824  0.0000E+00  0.1600E+02
    -18.722  0.0000E+00  0.1600E+02
    -18.621  0.0000E+00  0.1600E+02
    -18.520  0.0000E+00  0.1600E+02
    -18.419  0.0000E+00  0.1600E+02
    -18.318  0.0000E+00  0.1600E+02
    -18.217  0.0000E+00  0.1600E+02
    -18.116  0.0000E+00  0.1600E+02
    -18.015  0.0000E+00  0.1600E+02
    -17.913  0.0000E+00  0.1600E+02
    -17.812  0.0000E+00  0.1600E+02
    -17.711  0.0000E+00  0.1600E+02
    -17.610  0.0000E+00  0.1600E+02
    -17.509  0.0000E+00  0.1600E+02
    -17.408  0.0000E+00  0.1600E+02
    -17.307  0.0000E+00  0.1600E+02
    -17.205  0.0000E+00  0.1600E+02
    -17.104  0.0000E+00  0.1600E+02
    -17.003  0.0000E+00  0.1600E+02
    -16.902  0.0000E+00  0.1600E+02
    -16.801  0.0000E+00  0.1600E+02
    -16.700  0.9781E-08  0.1600E+02
    -16.599  0.1161E+03  0.2774E+02
    -16.498  0.2463E+03  0.5566E+02
    -16.396  0.0000E+00  0.9600E+02
    -16.295  0.0000E+00  0.9600E+02
    -16.194  0.0000E+00  0.9600E+02
    -16.093  0.0000E+00  0.9600E+02
    -15.992  0.0000E+00  0.9600E+02
    -15.891  0.0000E+00  0.9600E+02
    -15.790  0.0000E+00  0.9600E+02
    -15.688  0.0000E+00  0.9600E+02
    -15.587  0.0000E+00  0.9600E+02
    -15.486  0.0000E+00  0.9600E+02
    -15.385  0.0000E+00  0.9600E+02
    -15.284  0.0000E+00  0.9600E+02
    -15.183  0.0000E+00  0.9600E+02
    -15.082  0.0000E+00  0.9600E+02
    -14.981  0.0000E+00  0.9600E+02
    -14.879  0.0000E+00  0.9600E+02
    -14.778  0.0000E+00  0.9600E+02
    -14.677  0.0000E+00  0.9600E+02
    -14.576  0.0000E+00  0.9600E+02
    -14.475  0.0000E+00  0.9600E+02
    -14.374  0.0000E+00  0.9600E+02
    -14.273  0.9231E+01  0.9693E+02
    -14.171  0.1253E+03  0.1104E+03
    -14.070  0.2577E+01  0.1120E+03
    -13.969  0.1523E+02  0.1138E+03
    -13.868  0.9738E+02  0.1246E+03
    -13.767  0.1021E+03  0.1361E+03
    -13.666  0.1483E+02  0.1440E+03
    -13.565  0.0000E+00  0.1440E+03
    -13.464  0.0000E+00  0.1440E+03
    -13.362  0.0000E+00  0.1440E+03
    -13.261  0.0000E+00  0.1440E+03
    -13.160  0.0000E+00  0.1440E+03
    -13.059  0.0000E+00  0.1440E+03
    -12.958  0.0000E+00  0.1440E+03
    -12.857  0.0000E+00  0.1440E+03
    -12.756  0.0000E+00  0.1440E+03
    -12.654  0.0000E+00  0.1440E+03
    -12.553  0.0000E+00  0.1440E+03
    -12.452  0.0000E+00  0.1440E+03
    -12.351  0.0000E+00  0.1440E+03
    -12.250  0.0000E+00  0.1440E+03
    -12.149  0.0000E+00  0.1440E+03
    -12.048  0.0000E+00  0.1440E+03
    -11.947  0.0000E+00  0.1440E+03
    -11.845  0.0000E+00  0.1440E+03
    -11.744  0.0000E+00  0.1440E+03
    -11.643  0.0000E+00  0.1440E+03
    -11.542  0.0000E+00  0.1440E+03
    -11.441  0.0000E+00  0.1440E+03
    -11.340  0.0000E+00  0.1440E+03
    -11.239  0.0000E+00  0.1440E+03
    -11.138  0.0000E+00  0.1440E+03
    -11.036  0.0000E+00  0.1440E+03
    -10.935  0.0000E+00  0.1440E+03
    -10.834  0.0000E+00  0.1440E+03
    -10.733  0.0000E+00  0.1440E+03
    -10.632  0.0000E+00  0.1440E+03
    -10.531  0.0000E+00  0.1440E+03
    -10.430  0.0000E+00  0.1440E+03
    -10.328  0.0000E+00  0.1440E+03
    -10.227  0.0000E+00  0.1440E+03
    -10.126  0.0000E+00  0.1440E+03
    -10.025  0.0000E+00  0.1440E+03
     -9.924  0.0000E+00  0.1440E+03
     -9.823  0.0000E+00  0.1440E+03
     -9.722  0.0000E+00  0.1440E+03
     -9.621  0.0000E+00  0.1440E+03
     -9.519  0.0000E+00  0.1440E+03
     -9.418  0.0000E+00  0.1440E+03
     -9.317  0.0000E+00  0.1440E+03
     -9.216  0.0000E+00  0.1440E+03
     -9.115  0.0000E+00  0.1440E+03
     -9.014  0.0000E+00  0.1440E+03
     -8.913  0.0000E+00  0.1440E+03
     -8.811  0.0000E+00  0.1440E+03
     -8.710  0.0000E+00  0.1440E+03
     -8.609  0.0000E+00  0.1440E+03
     -8.508  0.0000E+00  0.1440E+03
     -8.407  0.0000E+00  0.1440E+03
     -8.306  0.0000E+00  0.1440E+03
     -8.205  0.0000E+00  0.1440E+03
     -8.104  0.2472E+01  0.1442E+03
     -8.002  0.4274E+00  0.1443E+03
     -7.901  0.1314E-09  0.1453E+03
     -7.800  0.1978E+02  0.1472E+03
     -7.699  0.7518E+01  0.1480E+03
     -7.598  0.4948E-10  0.1503E+03
     -7.497  0.3214E+02  0.1535E+03
     -7.396  0.4872E+01  0.1540E+03
     -7.294  0.1149E+00  0.1558E+03
     -7.193  0.4967E+01  0.1573E+03
     -7.092  0.2506E+03  0.1831E+03
     -6.991  0.8780E+02  0.2056E+03
     -6.890  0.1236E+02  0.2077E+03
     -6.789  0.6039E-10  0.2078E+03
     -6.688  0.2472E+01  0.2080E+03
     -6.587  0.0000E+00  0.2080E+03
     -6.485  0.0000E+00  0.2080E+03
     -6.384  0.0000E+00  0.2080E+03
     -6.283  0.0000E+00  0.2080E+03
     -6.182  0.0000E+00  0.2080E+03
     -6.081  0.0000E+00  0.2080E+03
     -5.980  0.0000E+00  0.2080E+03
     -5.879  0.0000E+00  0.2080E+03
     -5.778  0.0000E+00  0.2080E+03
     -5.676  0.0000E+00  0.2080E+03
     -5.575  0.0000E+00  0.2080E+03
     -5.474  0.0000E+00  0.2080E+03
     -5.373  0.0000E+00  0.2080E+03
     -5.272  0.0000E+00  0.2080E+03
     -5.171  0.0000E+00  0.2080E+03
     -5.070  0.0000E+00  0.2080E+03
     -4.968  0.0000E+00  0.2080E+03
     -4.867  0.0000E+00  0.2080E+03
     -4.766  0.0000E+00  0.2080E+03
     -4.665  0.0000E+00  0.2080E+03
     -4.564  0.0000E+00  0.2080E+03
     -4.463  0.0000E+00  0.2080E+03
     -4.362  0.0000E+00  0.2080E+03
     -4.261  0.0000E+00  0.2080E+03
     -4.159  0.0000E+00  0.2080E+03
     -4.058  0.0000E+00  0.2080E+03
     -3.957  0.0000E+00  0.2080E+03
     -3.856  0.0000E+00  0.2080E+03
     -3.755  0.0000E+00  0.2080E+03
     -3.654  0.0000E+00  0.2080E+03
     -3.553  0.7355E-08  0.2080E+03
     -3.451  0.3010E+02  0.2110E+03
     -3.350  0.2472E+01  0.2120E+03
     -3.249  0.0000E+00  0.2120E+03
     -3.148  0.0000E+00  0.2120E+03
     -3.047  0.0000E+00  0.2120E+03
     -2.946  0.2843E+01  0.2123E+03
     -2.845  0.3394E+02  0.2159E+03
     -2.744  0.1782E+02  0.2193E+03
     -2.642  0.3661E-03  0.2195E+03
     -2.541  0.5407E+02  0.2250E+03
     -2.440  0.8342E+02  0.2334E+03
     -2.339  0.2269E+02  0.2358E+03
     -2.238  0.7533E+01  0.2368E+03
     -2.137  0.6740E+02  0.2448E+03
     -2.036  0.1647E+02  0.2469E+03
     -1.934  0.4449E+02  0.2532E+03
     -1.833  0.1131E+02  0.2544E+03
     -1.732  0.4817E+02  0.2611E+03
     -1.631  0.3981E+02  0.2663E+03
     -1.530  0.5859E+02  0.2782E+03
     -1.429  0.7716E+02  0.2861E+03
     -1.328  0.9738E+02  0.2981E+03
     -1.227  0.5612E+02  0.3047E+03
     -1.125  0.7212E+02  0.3140E+03
     -1.024  0.9490E+02  0.3246E+03
     -0.923  0.4254E+02  0.3296E+03
     -0.822  0.7372E+02  0.3372E+03
     -0.721  0.3259E+02  0.3405E+03
     -0.620  0.3941E+02  0.3472E+03
     -0.519  0.2471E+01  0.3475E+03
     -0.417  0.2472E+01  0.3478E+03
     -0.316  0.1483E+02  0.3492E+03
     -0.215  0.1483E+02  0.3507E+03
     -0.114  0.4792E-01  0.3508E+03
     -0.013  0.0000E+00  0.3518E+03
      0.088  0.0000E+00  0.3518E+03
      0.189  0.5988E+00  0.3518E+03
      0.290  0.0000E+00  0.3520E+03
      0.392  0.0000E+00  0.3520E+03
      0.493  0.0000E+00  0.3520E+03
      0.594  0.0000E+00  0.3520E+03
      0.695  0.0000E+00  0.3520E+03
      0.796  0.0000E+00  0.3520E+03
      0.897  0.0000E+00  0.3520E+03
      0.998  0.0000E+00  0.3520E+03
      1.099  0.0000E+00  0.3520E+03
      1.201  0.0000E+00  0.3520E+03
      1.302  0.0000E+00  0.3520E+03
      1.403  0.0000E+00  0.3520E+03
      1.504  0.0000E+00  0.3520E+03
      1.605  0.0000E+00  0.3520E+03
      1.706  0.0000E+00  0.3520E+03
      1.807  0.0000E+00  0.3520E+03
      1.909  0.0000E+00  0.3520E+03
      2.010  0.0000E+00  0.3520E+03
      2.111  0.0000E+00  0.3520E+03
      2.212  0.0000E+00  0.3520E+03
      2.313  0.0000E+00  0.3520E+03
      2.414  0.0000E+00  0.3520E+03
      2.515  0.0000E+00  0.3520E+03
      2.616  0.0000E+00  0.3520E+03
      2.718  0.3602E-01  0.3520E+03
      2.819  0.7576E-05  0.3523E+03
      2.920  0.2966E+02  0.3552E+03
      3.021  0.3744E+02  0.3590E+03
      3.122  0.2482E+02  0.3623E+03
      3.223  0.1372E-15  0.3632E+03
      3.324  0.2472E+01  0.3635E+03
      3.426  0.4944E+01  0.3640E+03
      3.527  0.0000E+00  0.3640E+03
      3.628  0.0000E+00  0.3640E+03
      3.729  0.0000E+00  0.3640E+03
      3.830  0.6704E+01  0.3647E+03
      3.931  0.1978E+02  0.3670E+03
      4.032  0.3955E+02  0.3710E+03
      4.133  0.2992E+02  0.3740E+03
      4.235  0.7521E-02  0.3770E+03
      4.336  0.2966E+02  0.3800E+03
      4.437  0.0000E+00  0.3800E+03
      4.538  0.5190E-01  0.3800E+03
      4.639  0.4317E-02  0.3805E+03
      4.740  0.1980E+02  0.3825E+03
      4.841  0.3365E+02  0.3862E+03
      4.943  0.4944E+01  0.3888E+03
      5.044  0.9881E+01  0.3897E+03
      5.145  0.2955E+02  0.3927E+03
      5.246  0.5295E+01  0.3933E+03
      5.347  0.4977E+01  0.3958E+03
      5.448  0.8825E+01  0.3971E+03
      5.549  0.0000E+00  0.3978E+03
      5.650  0.2644E+01  0.3980E+03
      5.752  0.0000E+00  0.3988E+03
      5.853  0.5856E-05  0.3988E+03
      5.954  0.3202E+02  0.4020E+03
      6.055  0.2966E+02  0.4050E+03
      6.156  0.2181E+02  0.4072E+03
      6.257  0.2943E+01  0.4083E+03
      6.358  0.3027E+02  0.4123E+03
      6.460  0.3867E+02  0.4172E+03
      6.561  0.1021E+02  0.4183E+03
      6.662  0.2967E+02  0.4223E+03
      6.763  0.1535E+02  0.4253E+03
      6.864  0.3751E+02  0.4295E+03
      6.965  0.9887E+01  0.4320E+03
      7.066  0.0000E+00  0.4320E+03
      7.167  0.0000E+00  0.4320E+03
      7.269  0.0000E+00  0.4320E+03
      7.370  0.0000E+00  0.4320E+03
      7.471  0.0000E+00  0.4320E+03
      7.572  0.0000E+00  0.4320E+03
      7.673  0.0000E+00  0.4320E+03
      7.774  0.0000E+00  0.4320E+03
      7.875  0.0000E+00  0.4320E+03
      7.976  0.0000E+00  0.4320E+03
      8.078  0.0000E+00  0.4320E+03
      8.179  0.0000E+00  0.4320E+03
      8.280  0.0000E+00  0.4320E+03
      8.27988562    -22.05980027  301      0.23986886      1.00000000
    -22.060  0.0000E+00  0.0000E+00  0.0000E+00
    -21.959  0.0000E+00  0.0000E+00  0.0000E+00
    -21.858  0.0000E+00  0.0000E+00  0.0000E+00
    -21.756  0.0000E+00  0.0000E+00  0.0000E+00
    -21.655  0.0000E+00  0.0000E+00  0.0000E+00
    -21.554  0.0000E+00  0.0000E+00  0.0000E+00
    -21.453  0.0000E+00  0.0000E+00  0.0000E+00
    -21.352  0.0000E+00  0.0000E+00  0.0000E+00
    -21.251  0.0000E+00  0.0000E+00  0.0000E+00
    -21.150  0.0000E+00  0.0000E+00  0.0000E+00
    -21.048  0.0000E+00  0.0000E+00  0.0000E+00
    -20.947  0.0000E+00  0.0000E+00  0.0000E+00
    -20.846  0.0000E+00  0.0000E+00  0.0000E+00
    -20.745  0.0000E+00  0.0000E+00  0.0000E+00
    -20.644  0.1755E+02  0.5542E-06  0.3101E-04
    -20.543  0.0000E+00  0.0000E+00  0.0000E+00
    -20.442  0.0000E+00  0.0000E+00  0.0000E+00
    -20.341  0.0000E+00  0.0000E+00  0.0000E+00
    -20.239  0.0000E+00  0.0000E+00  0.0000E+00
    -20.138  0.0000E+00  0.0000E+00  0.0000E+00
    -20.037  0.0000E+00  0.0000E+00  0.0000E+00
    -19.936  0.0000E+00  0.0000E+00  0.0000E+00
    -19.835  0.0000E+00  0.0000E+00  0.0000E+00
    -19.734  0.0000E+00  0.0000E+00  0.0000E+00
    -19.633  0.0000E+00  0.0000E+00  0.0000E+00
    -19.531  0.0000E+00  0.0000E+00  0.0000E+00
    -19.430  0.0000E+00  0.0000E+00  0.0000E+00
    -19.329  0.0000E+00  0.0000E+00  0.0000E+00
    -19.228  0.0000E+00  0.0000E+00  0.0000E+00
    -19.127  0.0000E+00  0.0000E+00  0.0000E+00
    -19.026  0.0000E+00  0.0000E+00  0.0000E+00
    -18.925  0.0000E+00  0.0000E+00  0.0000E+00
    -18.824  0.0000E+00  0.0000E+00  0.0000E+00
    -18.722  0.0000E+00  0.0000E+00  0.0000E+00
    -18.621  0.0000E+00  0.0000E+00  0.0000E+00
    -18.520  0.0000E+00  0.0000E+00  0.0000E+00
    -18.419  0.0000E+00  0.0000E+00  0.0000E+00
    -18.318  0.0000E+00  0.0000E+00  0.0000E+00
    -18.217  0.0000E+00  0.0000E+00  0.0000E+00
    -18.116  0.0000E+00  0.0000E+00  0.0000E+00
    -18.015  0.0000E+00  0.0000E+00  0.0000E+00
    -17.913  0.0000E+00  0.0000E+00  0.0000E+00
    -17.812  0.0000E+00  0.0000E+00  0.0000E+00
    -17.711  0.0000E+00  0.0000E+00  0.0000E+00
    -17.610  0.0000E+00  0.0000E+00  0.0000E+00
    -17.509  0.0000E+00  0.0000E+00  0.0000E+00
    -17.408  0.0000E+00  0.0000E+00  0.0000E+00
    -17.307  0.0000E+00  0.0000E+00  0.0000E+00
    -17.205  0.0000E+00  0.0000E+00  0.0000E+00
    -17.104  0.0000E+00  0.0000E+00  0.0000E+00
    -17.003  0.0000E+00  0.0000E+00  0.0000E+00
    -16.902  0.0000E+00  0.0000E+00  0.0000E+00
    -16.801  0.0000E+00  0.0000E+00  0.0000E+00
    -16.700  0.4275E-15  0.1891E-15  0.1261E-14
    -16.599  0.2411E-05  0.1505E-04  0.6477E-05
    -16.498  0.1502E-03  0.8793E-04  0.1139E-04
    -16.396  0.0000E+00  0.0000E+00  0.0000E+00
    -16.295  0.0000E+00  0.0000E+00  0.0000E+00
    -16.194  0.0000E+00  0.0000E+00  0.0000E+00
    -16.093  0.0000E+00  0.0000E+00  0.0000E+00
    -15.992  0.0000E+00  0.0000E+00  0.0000E+00
    -15.891  0.0000E+00  0.0000E+00  0.0000E+00
    -15.790  0.0000E+00  0.0000E+00  0.0000E+00
    -15.688  0.0000E+00  0.0000E+00  0.0000E+00
    -15.587  0.0000E+00  0.0000E+00  0.0000E+00
    -15.486  0.0000E+00  0.0000E+00  0.0000E+00
    -15.385  0.0000E+00  0.0000E+00  0.0000E+00
    -15.284  0.0000E+00  0.0000E+00  0.0000E+00
    -15.183  0.0000E+00  0.0000E+00  0.0000E+00
    -15.082  0.0000E+00  0.0000E+00  0.0000E+00
    -14.981  0.0000E+00  0.0000E+00  0.0000E+00
    -14.879  0.0000E+00  0.0000E+00  0.0000E+00
    -14.778  0.0000E+00  0.0000E+00  0.0000E+00
    -14.677  0.0000E+00  0.0000E+00  0.0000E+00
    -14.576  0.0000E+00  0.0000E+00  0.0000E+00
    -14.475  0.0000E+00  0.0000E+00  0.0000E+00
    -14.374  0.0000E+00  0.0000E+00  0.0000E+00
    -14.273  0.1625E-02  0.3642E-03  0.1649E-04
    -14.171  0.3883E-02  0.5003E-02  0.2302E-03
    -14.070  0.1398E-17  0.4533E-04  0.9276E-05
    -13.969  0.7660E-05  0.6236E-02  0.6530E-04
    -13.868  0.1103E-01  0.1784E-01  0.1057E-02
    -13.767  0.3187E-02  0.1024E-01  0.1601E-02
    -13.666  0.3356E-04  0.1302E-02  0.1925E-03
    -13.565  0.0000E+00  0.0000E+00  0.0000E+00
    -13.464  0.0000E+00  0.0000E+00  0.0000E+00
    -13.362  0.0000E+00  0.0000E+00  0.0000E+00
    -13.261  0.0000E+00  0.0000E+00  0.0000E+00
    -13.160  0.0000E+00  0.0000E+00  0.0000E+00
    -13.059  0.0000E+00  0.0000E+00  0.0000E+00
    -12.958  0.0000E+00  0.0000E+00  0.0000E+00
    -12.857  0.0000E+00  0.0000E+00  0.0000E+00
    -12.756  0.0000E+00  0.0000E+00  0.0000E+00
    -12.654  0.0000E+00  0.0000E+00  0.0000E+00
    -12.553  0.0000E+00  0.0000E+00  0.0000E+00
    -12.452  0.0000E+00  0.0000E+00  0.0000E+00
    -12.351  0.0000E+00  0.0000E+00  0.0000E+00
    -12.250  0.0000E+00  0.0000E+00  0.0000E+00
    -12.149  0.0000E+00  0.0000E+00  0.0000E+00
    -12.048  0.0000E+00  0.0000E+00  0.0000E+00
    -11.947  0.0000E+00  0.0000E+00  0.0000E+00
    -11.845  0.0000E+00  0.0000E+00  0.0000E+00
    -11.744  0.0000E+00  0.0000E+00  0.0000E+00
    -11.643  0.0000E+00  0.0000E+00  0.0000E+00
    -11.542  0.0000E+00  0.0000E+00  0.0000E+00
    -11.441  0.0000E+00  0.0000E+00  0.0000E+00
    -11.340  0.0000E+00  0.0000E+00  0.0000E+00
    -11.239  0.0000E+00  0.0000E+00  0.0000E+00
    -11.138  0.0000E+00  0.0000E+00  0.0000E+00
    -11.036  0.0000E+00  0.0000E+00  0.0000E+00
    -10.935  0.0000E+00  0.0000E+00  0.0000E+00
    -10.834  0.0000E+00  0.0000E+00  0.0000E+00
    -10.733  0.0000E+00  0.0000E+00  0.0000E+00
    -10.632  0.0000E+00  0.0000E+00  0.0000E+00
    -10.531  0.0000E+00  0.0000E+00  0.0000E+00
    -10.430  0.0000E+00  0.0000E+00  0.0000E+00
    -10.328  0.0000E+00  0.0000E+00  0.0000E+00
    -10.227  0.0000E+00  0.0000E+00  0.0000E+00
    -10.126  0.0000E+00  0.0000E+00  0.0000E+00
    -10.025  0.0000E+00  0.0000E+00  0.0000E+00
     -9.924  0.0000E+00  0.0000E+00  0.0000E+00
     -9.823  0.0000E+00  0.0000E+00  0.0000E+00
     -9.722  0.0000E+00  0.0000E+00  0.0000E+00
     -9.621  0.0000E+00  0.0000E+00  0.0000E+00
     -9.519  0.0000E+00  0.0000E+00  0.0000E+00
     -9.418  0.0000E+00  0.0000E+00  0.0000E+00
     -9.317  0.0000E+00  0.0000E+00  0.0000E+00
     -9.216  0.0000E+00  0.0000E+00  0.0000E+00
     -9.115  0.0000E+00  0.0000E+00  0.0000E+00
     -9.014  0.0000E+00  0.0000E+00  0.0000E+00
     -8.913  0.0000E+00  0.0000E+00  0.0000E+00
     -8.811  0.0000E+00  0.0000E+00  0.0000E+00
     -8.710  0.0000E+00  0.0000E+00  0.0000E+00
     -8.609  0.0000E+00  0.0000E+00  0.0000E+00
     -8.508  0.0000E+00  0.0000E+00  0.0000E+00
     -8.407  0.0000E+00  0.0000E+00  0.0000E+00
     -8.306  0.0000E+00  0.0000E+00  0.0000E+00
     -8.205  0.0000E+00  0.0000E+00  0.0000E+00
     -8.104  0.8749E-19  0.9090E-19  0.5215E-19
     -8.002  0.7126E-19  0.2002E-03  0.4395E-07
     -7.901  0.1488E-29  0.1789E-12  0.4664E-16
     -7.800  0.3367E-17  0.2051E-01  0.6954E-05
     -7.699  0.2856E-07  0.2170E-01  0.4613E-05
     -7.598  0.7900E-19  0.2640E-12  0.3367E-16
     -7.497  0.3558E-04  0.7324E-01  0.7601E-04
     -7.396  0.6709E-05  0.1492E-01  0.1001E-04
     -7.294  0.1464E-20  0.9389E-05  0.4167E-06
     -7.193  0.1350E-04  0.9519E-01  0.1115E-04
     -7.092  0.6298E-04  0.2237E+02  0.1968E-03
     -6.991  0.1899E-03  0.8054E+01  0.4772E-04
     -6.890  0.7099E-04  0.2314E+00  0.6604E-04
     -6.789  0.8385E-15  0.9117E-28  0.4367E-15
     -6.688  0.3432E-04  0.3732E-17  0.1788E-04
     -6.587  0.0000E+00  0.0000E+00  0.0000E+00
     -6.485  0.0000E+00  0.0000E+00  0.0000E+00
     -6.384  0.0000E+00  0.0000E+00  0.0000E+00
     -6.283  0.0000E+00  0.0000E+00  0.0000E+00
     -6.182  0.0000E+00  0.0000E+00  0.0000E+00
     -6.081  0.0000E+00  0.0000E+00  0.0000E+00
     -5.980  0.0000E+00  0.0000E+00  0.0000E+00
     -5.879  0.0000E+00  0.0000E+00  0.0000E+00
     -5.778  0.0000E+00  0.0000E+00  0.0000E+00
     -5.676  0.0000E+00  0.0000E+00  0.0000E+00
     -5.575  0.0000E+00  0.0000E+00  0.0000E+00
     -5.474  0.0000E+00  0.0000E+00  0.0000E+00
     -5.373  0.0000E+00  0.0000E+00  0.0000E+00
     -5.272  0.0000E+00  0.0000E+00  0.0000E+00
     -5.171  0.0000E+00  0.0000E+00  0.0000E+00
     -5.070  0.0000E+00  0.0000E+00  0.0000E+00
     -4.968  0.0000E+00  0.0000E+00  0.0000E+00
     -4.867  0.0000E+00  0.0000E+00  0.0000E+00
     -4.766  0.0000E+00  0.0000E+00  0.0000E+00
     -4.665  0.0000E+00  0.0000E+00  0.0000E+00
     -4.564  0.0000E+00  0.0000E+00  0.0000E+00
     -4.463  0.0000E+00  0.0000E+00  0.0000E+00
     -4.362  0.0000E+00  0.0000E+00  0.0000E+00
     -4.261  0.0000E+00  0.0000E+00  0.0000E+00
     -4.159  0.0000E+00  0.0000E+00  0.0000E+00
     -4.058  0.0000E+00  0.0000E+00  0.0000E+00
     -3.957  0.0000E+00  0.0000E+00  0.0000E+00
     -3.856  0.0000E+00  0.0000E+00  0.0000E+00
     -3.755  0.0000E+00  0.0000E+00  0.0000E+00
     -3.654  0.0000E+00  0.0000E+00  0.0000E+00
     -3.553  0.4362E-21  0.1017E-10  0.2186E-13
     -3.451  0.1827E-07  0.1550E-01  0.8951E-03
     -3.350  0.2235E-19  0.1198E-17  0.2129E-17
     -3.249  0.0000E+00  0.0000E+00  0.0000E+00
     -3.148  0.0000E+00  0.0000E+00  0.0000E+00
     -3.047  0.0000E+00  0.0000E+00  0.0000E+00
     -2.946  0.2797E-18  0.3582E-02  0.6130E-04
     -2.845  0.8301E-16  0.2092E-01  0.2515E-02
     -2.744  0.5192E-17  0.3792E-02  0.1560E-02
     -2.642  0.3889E-12  0.3057E-10  0.7300E-09
     -2.541  0.3541E-03  0.6618E-01  0.1520E-02
     -2.440  0.2089E-02  0.4693E-01  0.8980E-02
     -2.339  0.2679E-02  0.1828E-01  0.2499E-02
     -2.238  0.2024E-04  0.1060E-02  0.3579E-03
     -2.137  0.9884E-02  0.2893E-01  0.9783E-02
     -2.036  0.2278E-02  0.8417E-02  0.1878E-02
     -1.934  0.2523E-01  0.4025E-01  0.3483E-02
     -1.833  0.6046E-03  0.3486E-01  0.2351E-02
     -1.732  0.6439E-02  0.1089E+00  0.8017E-02
     -1.631  0.7797E-02  0.3778E-01  0.8793E-02
     -1.530  0.2908E-02  0.8958E-01  0.1067E-01
     -1.429  0.6730E-02  0.8151E-01  0.9660E-02
     -1.328  0.7746E-02  0.9454E-01  0.2505E-01
     -1.227  0.5310E-02  0.9210E-01  0.2089E-01
     -1.125  0.1747E-03  0.1125E+00  0.2902E-01
     -1.024  0.4095E-02  0.2545E+00  0.1901E-01
     -0.923  0.1022E-02  0.6124E-01  0.7435E-02
     -0.822  0.5927E-08  0.3134E-01  0.7651E-02
     -0.721  0.4886E-04  0.7748E-02  0.6365E-02
     -0.620  0.2857E-04  0.1309E-01  0.3867E-02
     -0.519  0.3741E-18  0.7592E-03  0.8803E-07
     -0.417  0.1211E-15  0.6671E-14  0.2555E-03
     -0.316  0.2016E-04  0.2083E-02  0.2881E-03
     -0.215  0.2232E-14  0.2000E-02  0.2873E-03
     -0.114  0.1392E-16  0.4391E-05  0.7581E-06
     -0.013  0.0000E+00  0.0000E+00  0.0000E+00
      0.088  0.0000E+00  0.0000E+00  0.0000E+00
      0.189  0.3281E-19  0.1019E-17  0.6929E-17
      0.290  0.0000E+00  0.0000E+00  0.0000E+00
      0.392  0.0000E+00  0.0000E+00  0.0000E+00
      0.493  0.0000E+00  0.0000E+00  0.0000E+00
      0.594  0.0000E+00  0.0000E+00  0.0000E+00
      0.695  0.0000E+00  0.0000E+00  0.0000E+00
      0.796  0.0000E+00  0.0000E+00  0.0000E+00
      0.897  0.0000E+00  0.0000E+00  0.0000E+00
      0.998  0.0000E+00  0.0000E+00  0.0000E+00
      1.099  0.0000E+00  0.0000E+00  0.0000E+00
      1.201  0.0000E+00  0.0000E+00  0.0000E+00
      1.302  0.0000E+00  0.0000E+00  0.0000E+00
      1.403  0.0000E+00  0.0000E+00  0.0000E+00
      1.504  0.0000E+00  0.0000E+00  0.0000E+00
      1.605  0.0000E+00  0.0000E+00  0.0000E+00
      1.706  0.0000E+00  0.0000E+00  0.0000E+00
      1.807  0.0000E+00  0.0000E+00  0.0000E+00
      1.909  0.0000E+00  0.0000E+00  0.0000E+00
      2.010  0.0000E+00  0.0000E+00  0.0000E+00
      2.111  0.0000E+00  0.0000E+00  0.0000E+00
      2.212  0.0000E+00  0.0000E+00  0.0000E+00
      2.313  0.0000E+00  0.0000E+00  0.0000E+00
      2.414  0.0000E+00  0.0000E+00  0.0000E+00
      2.515  0.0000E+00  0.0000E+00  0.0000E+00
      2.616  0.0000E+00  0.0000E+00  0.0000E+00
      2.718  0.6279E-18  0.1542E-17  0.1109E-04
      2.819  0.4834E-09  0.2024E-08  0.1810E-08
      2.920  0.9195E-03  0.2166E-02  0.9147E-02
      3.021  0.4596E-03  0.3556E-02  0.8678E-02
      3.122  0.4484E-03  0.6316E-02  0.2011E-02
      3.223  0.1844E-20  0.1956E-32  0.3428E-19
      3.324  0.3322E-04  0.2393E-10  0.6176E-03
      3.426  0.1784E-03  0.1073E-02  0.1850E-03
      3.527  0.0000E+00  0.0000E+00  0.0000E+00
      3.628  0.0000E+00  0.0000E+00  0.0000E+00
      3.729  0.0000E+00  0.0000E+00  0.0000E+00
      3.830  0.2651E-03  0.2941E-03  0.9506E-03
      3.931  0.1866E-13  0.2900E-02  0.8623E-02
      4.032  0.9473E-03  0.3519E-02  0.8894E-02
      4.133  0.9159E-03  0.3672E-02  0.6381E-02
      4.235  0.1033E-05  0.2248E-05  0.3988E-06
      4.336  0.3217E-02  0.5094E-02  0.4109E-02
      4.437  0.0000E+00  0.0000E+00  0.0000E+00
      4.538  0.5754E-18  0.1260E-17  0.5382E-04
      4.639  0.1258E-16  0.1024E-05  0.3151E-05
      4.740  0.6535E-04  0.4696E-02  0.1446E-01
      4.841  0.1314E-02  0.1012E-01  0.2081E-01
      4.943  0.6245E-02  0.1783E-02  0.9801E-02
      5.044  0.5458E-12  0.2548E-13  0.1335E-02
      5.145  0.7416E-12  0.3659E-03  0.4412E-02
      5.246  0.1300E-12  0.1006E-03  0.3961E-03
      5.347  0.1178E-13  0.1504E-05  0.3281E-03
      5.448  0.3613E-01  0.8445E-02  0.1600E-01
      5.549  0.0000E+00  0.0000E+00  0.0000E+00
      5.650  0.3365E-03  0.9753E-04  0.3716E-01
      5.752  0.0000E+00  0.0000E+00  0.0000E+00
      5.853  0.2065E-07  0.5538E-08  0.2256E-07
      5.954  0.1080E+00  0.3418E-01  0.1452E+00
      6.055  0.1563E-01  0.2518E-01  0.3721E+00
      6.156  0.5785E-01  0.2007E-01  0.1656E+00
      6.257  0.5266E-06  0.7692E-03  0.6182E-02
      6.358  0.1922E-01  0.2081E-01  0.1506E+00
      6.460  0.4856E-02  0.4779E-01  0.4258E+00
      6.561  0.2199E-01  0.3100E-02  0.1301E+00
      6.662  0.2074E-03  0.1119E+00  0.2353E+00
      6.763  0.1198E-01  0.2344E-01  0.1997E+00
      6.864  0.2193E-02  0.9134E-01  0.3932E+00
      6.965  0.1205E-01  0.4873E-02  0.7343E-01
      7.066  0.0000E+00  0.0000E+00  0.0000E+00
      7.167  0.0000E+00  0.0000E+00  0.0000E+00
      7.269  0.0000E+00  0.0000E+00  0.0000E+00
      7.370  0.0000E+00  0.0000E+00  0.0000E+00
      7.471  0.0000E+00  0.0000E+00  0.0000E+00
      7.572  0.0000E+00  0.0000E+00  0.0000E+00
      7.673  0.0000E+00  0.0000E+00  0.0000E+00
      7.774  0.0000E+00  0.0000E+00  0.0000E+00
      7.875  0.0000E+00  0.0000E+00  0.0000E+00
      7.976  0.0000E+00  0.0000E+00  0.0000E+00
      8.078  0.0000E+00  0.0000E+00  0.0000E+00
      8.179  0.0000E+00  0.0000E+00  0.0000E+00
      8.280  0.0000E+00  0.0000E+00  0.0000E+00
      8.27988562    -22.05980027  301      0.23986886      1.00000000
    -22.060  0.0000E+00  0.0000E+00  0.0000E+00
    -21.959  0.0000E+00  0.0000E+00  0.0000E+00
    -21.858  0.0000E+00  0.0000E+00  0.0000E+00
    -21.756  0.0000E+00  0.0000E+00  0.0000E+00
    -21.655  0.0000E+00  0.0000E+00  0.0000E+00
    -21.554  0.0000E+00  0.0000E+00  0.0000E+00
    -21.453  0.0000E+00  0.0000E+00  0.0000E+00
    -21.352  0.0000E+00  0.0000E+00  0.0000E+00
    -21.251  0.0000E+00  0.0000E+00  0.0000E+00
    -21.150  0.0000E+00  0.0000E+00  0.0000E+00
    -21.048  0.0000E+00  0.0000E+00  0.0000E+00
    -20.947  0.0000E+00  0.0000E+00  0.0000E+00
    -20.846  0.0000E+00  0.0000E+00  0.0000E+00
    -20.745  0.0000E+00  0.0000E+00  0.0000E+00
    -20.644  0.1755E+02  0.5542E-06  0.3101E-04
    -20.543  0.0000E+00  0.0000E+00  0.0000E+00
    -20.442  0.0000E+00  0.0000E+00  0.0000E+00
    -20.341  0.0000E+00  0.0000E+00  0.0000E+00
    -20.239  0.0000E+00  0.0000E+00  0.0000E+00
    -20.138  0.0000E+00  0.0000E+00  0.0000E+00
    -20.037  0.0000E+00  0.0000E+00  0.0000E+00
    -19.936  0.0000E+00  0.0000E+00  0.0000E+00
    -19.835  0.0000E+00  0.0000E+00  0.0000E+00
    -19.734  0.0000E+00  0.0000E+00  0.0000E+00
    -19.633  0.0000E+00  0.0000E+00  0.0000E+00
    -19.531  0.0000E+00  0.0000E+00  0.0000E+00
    -19.430  0.0000E+00  0.0000E+00  0.0000E+00
    -19.329  0.0000E+00  0.0000E+00  0.0000E+00
    -19.228  0.0000E+00  0.0000E+00  0.0000E+00
    -19.127  0.0000E+00  0.0000E+00  0.0000E+00
    -19.026  0.0000E+00  0.0000E+00  0.0000E+00
    -18.925  0.0000E+00  0.0000E+00  0.0000E+00
    -18.824  0.0000E+00  0.0000E+00  0.0000E+00
    -18.722  0.0000E+00  0.0000E+00  0.0000E+00
    -18.621  0.0000E+00  0.0000E+00  0.0000E+00
    -18.520  0.0000E+00  0.0000E+00  0.0000E+00
    -18.419  0.0000E+00  0.0000E+00  0.0000E+00
    -18.318  0.0000E+00  0.0000E+00  0.0000E+00
    -18.217  0.0000E+00  0.0000E+00  0.0000E+00
    -18.116  0.0000E+00  0.0000E+00  0.0000E+00
    -18.015  0.0000E+00  0.0000E+00  0.0000E+00
    -17.913  0.0000E+00  0.0000E+00  0.0000E+00
    -17.812  0.0000E+00  0.0000E+00  0.0000E+00
    -17.711  0.0000E+00  0.0000E+00  0.0000E+00
    -17.610  0.0000E+00  0.0000E+00  0.0000E+00
    -17.509  0.0000E+00  0.0000E+00  0.0000E+00
    -17.408  0.0000E+00  0.0000E+00  0.0000E+00
    -17.307  0.0000E+00  0.0000E+00  0.0000E+00
    -17.205  0.0000E+00  0.0000E+00  0.0000E+00
    -17.104  0.0000E+00  0.0000E+00  0.0000E+00
    -17.003  0.0000E+00  0.0000E+00  0.0000E+00
    -16.902  0.0000E+00  0.0000E+00  0.0000E+00
    -16.801  0.0000E+00  0.0000E+00  0.0000E+00
    -16.700  0.4275E-15  0.1891E-15  0.1261E-14
    -16.599  0.2411E-05  0.1505E-04  0.6477E-05
    -16.498  0.1502E-03  0.8793E-04  0.1139E-04
    -16.396  0.0000E+00  0.0000E+00  0.0000E+00
    -16.295  0.0000E+00  0.0000E+00  0.0000E+00
    -16.194  0.0000E+00  0.0000E+00  0.0000E+00
    -16.093  0.0000E+00  0.0000E+00  0.0000E+00
    -15.992  0.0000E+00  0.0000E+00  0.0000E+00
    -15.891  0.0000E+00  0.0000E+00  0.0000E+00
    -15.790  0.0000E+00  0.0000E+00  0.0000E+00
    -15.688  0.0000E+00  0.0000E+00  0.0000E+00
    -15.587  0.0000E+00  0.0000E+00  0.0000E+00
    -15.486  0.0000E+00  0.0000E+00  0.0000E+00
    -15.385  0.0000E+00  0.0000E+00  0.0000E+00
    -15.284  0.0000E+00  0.0000E+00  0.0000E+00
    -15.183  0.0000E+00  0.0000E+00  0.0000E+00
    -15.082  0.0000E+00  0.0000E+00  0.0000E+00
    -14.981  0.0000E+00  0.0000E+00  0.0000E+00
    -14.879  0.0000E+00  0.0000E+00  0.0000E+00
    -14.778  0.0000E+00  0.0000E+00  0.0000E+00
    -14.677  0.0000E+00  0.0000E+00  0.0000E+00
    -14.576  0.0000E+00  0.0000E+00  0.0000E+00
    -14.475  0.0000E+00  0.0000E+00  0.0000E+00
    -14.374  0.0000E+00  0.0000E+00  0.0000E+00
    -14.273  0.1625E-02  0.3642E-03  0.1649E-04
    -14.171  0.3883E-02  0.5003E-02  0.2302E-03
    -14.070  0.2574E-17  0.4533E-04  0.9276E-05
    -13.969  0.7660E-05  0.6236E-02  0.6530E-04
    -13.868  0.1103E-01  0.1784E-01  0.1057E-02
    -13.767  0.3187E-02  0.1024E-01  0.1601E-02
    -13.666  0.3356E-04  0.1302E-02  0.1925E-03
    -13.565  0.0000E+00  0.0000E+00  0.0000E+00
    -13.464  0.0000E+00  0.0000E+00  0.0000E+00
    -13.362  0.0000E+00  0.0000E+00  0.0000E+00
    -13.261  0.0000E+00  0.0000E+00  0.0000E+00
    -13.160  0.0000E+00  0.0000E+00  0.0000E+00
    -13.059  0.0000E+00  0.0000E+00  0.0000E+00