 running on   64 total cores
 distrk:  each k-point on   64 cores,    1 groups
 distr:  one band on    8 cores,    8 groups
 using from now: INCAR     
 vasp.5.4.4.18Apr17-6-g9f103f2a35 (build Jun 22 2020 09:27:21) complex           
 POSCAR found type information on POSCAR  Cs Pb Br
 POSCAR found :  3 types and      40 ions
 scaLAPACK will be used
 LDA part: xc-table for Pade appr. of Perdew
 POSCAR found type information on POSCAR  Cs Pb Br
 POSCAR found :  3 types and      40 ions
 POSCAR, INCAR and KPOINTS ok, starting setup
 FFT: planning ...
 WAVECAR not read
 entering main loop
       N       E                     dE             d eps       ncg     rms          rms(c)
DAV:   1     0.135064920481E+04    0.13506E+04   -0.11284E+05  2696   0.958E+02
DAV:   2    -0.113094490370E+04   -0.24816E+04   -0.23822E+04  3208   0.295E+02
DAV:   3    -0.149673838973E+04   -0.36579E+03   -0.36367E+03  3472   0.134E+02
DAV:   4    -0.150866240822E+04   -0.11924E+02   -0.11887E+02  3040   0.321E+01
DAV:   5    -0.150922348151E+04   -0.56107E+00   -0.56084E+00  3424   0.543E+00    0.101E+01
DAV:   6    -0.142828442057E+04    0.80939E+02   -0.24986E+01  3360   0.296E+01    0.715E+00
DAV:   7    -0.142772948820E+04    0.55493E+00   -0.90458E+00  3176   0.543E+00    0.377E+00
DAV:   8    -0.142794314194E+04   -0.21365E+00   -0.47231E-01  3008   0.197E+00    0.215E+00
DAV:   9    -0.142802760241E+04   -0.84460E-01   -0.19194E-01  2808   0.129E+00    0.409E-01
DAV:  10    -0.142803118885E+04   -0.35864E-02   -0.12960E-02  3680   0.321E-01    0.283E-01
DAV:  11    -0.142803554978E+04   -0.43609E-02   -0.49415E-03  2832   0.201E-01    0.957E-02
DAV:  12    -0.142803545924E+04    0.90532E-04   -0.92566E-04  2912   0.939E-02    0.400E-02
DAV:  13    -0.142803539063E+04    0.68610E-04   -0.11451E-04  3080   0.275E-02    0.169E-02
DAV:  14    -0.142803539508E+04   -0.44406E-05   -0.16617E-05  2816   0.829E-03    0.380E-03
DAV:  15    -0.142803539721E+04   -0.21382E-05   -0.11290E-06  1712   0.346E-03    0.157E-03
DAV:  16    -0.142803538936E+04    0.78557E-05   -0.37806E-07  1616   0.238E-03    0.937E-04
DAV:  17    -0.142803538758E+04    0.17759E-05   -0.10792E-07  1536   0.127E-03    0.433E-04
DAV:  18    -0.142803538868E+04   -0.10977E-05   -0.46135E-08  1536   0.857E-04    0.163E-04
DAV:  19    -0.142803538918E+04   -0.50250E-06   -0.18083E-08  1536   0.619E-04
   1 F= -.14280354E+04 E0= -.14280354E+04  d E =-.643895E-12
Application 1868210 resources: utime ~24144s, stime ~241s, Rss ~130036, inblocks ~1328, outblocks ~271904
