  20  20   1   0
  0.4006725E+02  0.8407069E-09  0.8117428E-09  0.1174239E-08  0.5000000E-15
   1.0000000000000000E-004
  CAR 
 CsPbBr3 cubic bulk                      
      8.65475086    -22.15338595  301      0.56761495      1.00000000
    -22.153  0.0000E+00  0.0000E+00
    -22.051  0.0000E+00  0.0000E+00
    -21.948  0.0000E+00  0.0000E+00
    -21.845  0.0000E+00  0.0000E+00
    -21.743  0.0000E+00  0.0000E+00
    -21.640  0.0000E+00  0.0000E+00
    -21.537  0.0000E+00  0.0000E+00
    -21.435  0.0000E+00  0.0000E+00
    -21.332  0.0000E+00  0.0000E+00
    -21.229  0.0000E+00  0.0000E+00
    -21.126  0.0000E+00  0.0000E+00
    -21.024  0.0000E+00  0.0000E+00
    -20.921  0.0000E+00  0.0000E+00
    -20.818  0.0000E+00  0.0000E+00
    -20.716  0.7790E+02  0.8000E+01
    -20.613  0.0000E+00  0.8000E+01
    -20.510  0.0000E+00  0.8000E+01
    -20.408  0.0000E+00  0.8000E+01
    -20.305  0.0000E+00  0.8000E+01
    -20.202  0.0000E+00  0.8000E+01
    -20.100  0.0000E+00  0.8000E+01
    -19.997  0.0000E+00  0.8000E+01
    -19.894  0.0000E+00  0.8000E+01
    -19.791  0.0000E+00  0.8000E+01
    -19.689  0.0000E+00  0.8000E+01
    -19.586  0.0000E+00  0.8000E+01
    -19.483  0.0000E+00  0.8000E+01
    -19.381  0.0000E+00  0.8000E+01
    -19.278  0.0000E+00  0.8000E+01
    -19.175  0.0000E+00  0.8000E+01
    -19.073  0.0000E+00  0.8000E+01
    -18.970  0.0000E+00  0.8000E+01
    -18.867  0.0000E+00  0.8000E+01
    -18.764  0.0000E+00  0.8000E+01
    -18.662  0.0000E+00  0.8000E+01
    -18.559  0.0000E+00  0.8000E+01
    -18.456  0.0000E+00  0.8000E+01
    -18.354  0.0000E+00  0.8000E+01
    -18.251  0.0000E+00  0.8000E+01
    -18.148  0.0000E+00  0.8000E+01
    -18.046  0.0000E+00  0.8000E+01
    -17.943  0.0000E+00  0.8000E+01
    -17.840  0.0000E+00  0.8000E+01
    -17.738  0.0000E+00  0.8000E+01
    -17.635  0.0000E+00  0.8000E+01
    -17.532  0.0000E+00  0.8000E+01
    -17.429  0.0000E+00  0.8000E+01
    -17.327  0.0000E+00  0.8000E+01
    -17.224  0.0000E+00  0.8000E+01
    -17.121  0.0000E+00  0.8000E+01
    -17.019  0.0000E+00  0.8000E+01
    -16.916  0.0000E+00  0.8000E+01
    -16.813  0.0000E+00  0.8000E+01
    -16.711  0.0000E+00  0.8000E+01
    -16.608  0.0000E+00  0.8000E+01
    -16.505  0.4925E-13  0.8000E+01
    -16.403  0.8291E+02  0.1651E+02
    -16.300  0.6366E+02  0.2598E+02
    -16.197  0.0000E+00  0.4800E+02
    -16.094  0.0000E+00  0.4800E+02
    -15.992  0.0000E+00  0.4800E+02
    -15.889  0.0000E+00  0.4800E+02
    -15.786  0.0000E+00  0.4800E+02
    -15.684  0.0000E+00  0.4800E+02
    -15.581  0.0000E+00  0.4800E+02
    -15.478  0.0000E+00  0.4800E+02
    -15.376  0.0000E+00  0.4800E+02
    -15.273  0.0000E+00  0.4800E+02
    -15.170  0.0000E+00  0.4800E+02
    -15.068  0.0000E+00  0.4800E+02
    -14.965  0.0000E+00  0.4800E+02
    -14.862  0.0000E+00  0.4800E+02
    -14.759  0.0000E+00  0.4800E+02
    -14.657  0.0000E+00  0.4800E+02
    -14.554  0.0000E+00  0.4800E+02
    -14.451  0.0000E+00  0.4800E+02
    -14.349  0.1735E-03  0.4800E+02
    -14.246  0.7574E+01  0.4878E+02
    -14.143  0.2329E+02  0.5117E+02
    -14.041  0.2602E+02  0.5467E+02
    -13.938  0.5109E+02  0.6036E+02
    -13.835  0.3662E+02  0.6587E+02
    -13.732  0.3531E+02  0.7107E+02
    -13.630  0.0000E+00  0.7200E+02
    -13.527  0.0000E+00  0.7200E+02
    -13.424  0.0000E+00  0.7200E+02
    -13.322  0.0000E+00  0.7200E+02
    -13.219  0.0000E+00  0.7200E+02
    -13.116  0.0000E+00  0.7200E+02
    -13.014  0.0000E+00  0.7200E+02
    -12.911  0.0000E+00  0.7200E+02
    -12.808  0.0000E+00  0.7200E+02
    -12.706  0.0000E+00  0.7200E+02
    -12.603  0.0000E+00  0.7200E+02
    -12.500  0.0000E+00  0.7200E+02
    -12.397  0.0000E+00  0.7200E+02
    -12.295  0.0000E+00  0.7200E+02
    -12.192  0.0000E+00  0.7200E+02
    -12.089  0.0000E+00  0.7200E+02
    -11.987  0.0000E+00  0.7200E+02
    -11.884  0.0000E+00  0.7200E+02
    -11.781  0.0000E+00  0.7200E+02
    -11.679  0.0000E+00  0.7200E+02
    -11.576  0.0000E+00  0.7200E+02
    -11.473  0.0000E+00  0.7200E+02
    -11.371  0.0000E+00  0.7200E+02
    -11.268  0.0000E+00  0.7200E+02
    -11.165  0.0000E+00  0.7200E+02
    -11.062  0.0000E+00  0.7200E+02
    -10.960  0.0000E+00  0.7200E+02
    -10.857  0.0000E+00  0.7200E+02
    -10.754  0.0000E+00  0.7200E+02
    -10.652  0.0000E+00  0.7200E+02
    -10.549  0.0000E+00  0.7200E+02
    -10.446  0.0000E+00  0.7200E+02
    -10.344  0.0000E+00  0.7200E+02
    -10.241  0.0000E+00  0.7200E+02
    -10.138  0.0000E+00  0.7200E+02
    -10.036  0.0000E+00  0.7200E+02
     -9.933  0.0000E+00  0.7200E+02
     -9.830  0.0000E+00  0.7200E+02
     -9.727  0.0000E+00  0.7200E+02
     -9.625  0.0000E+00  0.7200E+02
     -9.522  0.0000E+00  0.7200E+02
     -9.419  0.0000E+00  0.7200E+02
     -9.317  0.0000E+00  0.7200E+02
     -9.214  0.0000E+00  0.7200E+02
     -9.111  0.0000E+00  0.7200E+02
     -9.009  0.0000E+00  0.7200E+02
     -8.906  0.0000E+00  0.7200E+02
     -8.803  0.0000E+00  0.7200E+02
     -8.700  0.0000E+00  0.7200E+02
     -8.598  0.0000E+00  0.7200E+02
     -8.495  0.0000E+00  0.7200E+02
     -8.392  0.0000E+00  0.7200E+02
     -8.290  0.0000E+00  0.7200E+02
     -8.187  0.1338E-06  0.7200E+02
     -8.084  0.1082E+01  0.7211E+02
     -7.982  0.1014E-07  0.7211E+02
     -7.879  0.6492E+01  0.7278E+02
     -7.776  0.4328E+01  0.7322E+02
     -7.674  0.8656E+01  0.7411E+02
     -7.571  0.8856E+01  0.7502E+02
     -7.468  0.6300E+00  0.7562E+02
     -7.365  0.4328E+01  0.7644E+02
     -7.263  0.1299E+02  0.7778E+02
     -7.160  0.7080E+02  0.8549E+02
     -7.057  0.9845E+02  0.1028E+03
     -6.955  0.4320E+01  0.1032E+03
     -6.852  0.5868E+01  0.1038E+03
     -6.749  0.0000E+00  0.1039E+03
     -6.647  0.0000E+00  0.1039E+03
     -6.544  0.2537E-04  0.1039E+03
     -6.441  0.1082E+01  0.1040E+03
     -6.339  0.0000E+00  0.1040E+03
     -6.236  0.0000E+00  0.1040E+03
     -6.133  0.0000E+00  0.1040E+03
     -6.030  0.0000E+00  0.1040E+03
     -5.928  0.0000E+00  0.1040E+03
     -5.825  0.0000E+00  0.1040E+03
     -5.722  0.0000E+00  0.1040E+03
     -5.620  0.0000E+00  0.1040E+03
     -5.517  0.0000E+00  0.1040E+03
     -5.414  0.0000E+00  0.1040E+03
     -5.312  0.0000E+00  0.1040E+03
     -5.209  0.0000E+00  0.1040E+03
     -5.106  0.0000E+00  0.1040E+03
     -5.004  0.0000E+00  0.1040E+03
     -4.901  0.0000E+00  0.1040E+03
     -4.798  0.0000E+00  0.1040E+03
     -4.695  0.0000E+00  0.1040E+03
     -4.593  0.0000E+00  0.1040E+03
     -4.490  0.0000E+00  0.1040E+03
     -4.387  0.0000E+00  0.1040E+03
     -4.285  0.0000E+00  0.1040E+03
     -4.182  0.0000E+00  0.1040E+03
     -4.079  0.0000E+00  0.1040E+03
     -3.977  0.0000E+00  0.1040E+03
     -3.874  0.0000E+00  0.1040E+03
     -3.771  0.0000E+00  0.1040E+03
     -3.669  0.0000E+00  0.1040E+03
     -3.566  0.0000E+00  0.1040E+03
     -3.463  0.0000E+00  0.1040E+03
     -3.360  0.0000E+00  0.1040E+03
     -3.258  0.1425E+01  0.1041E+03
     -3.155  0.1851E+02  0.1066E+03
     -3.052  0.1083E+02  0.1082E+03
     -2.950  0.2559E+01  0.1089E+03
     -2.847  0.8664E+01  0.1100E+03
     -2.744  0.2174E+02  0.1127E+03
     -2.642  0.9820E+01  0.1139E+03
     -2.539  0.1956E-08  0.1140E+03
     -2.436  0.1416E+02  0.1155E+03
     -2.333  0.1722E+02  0.1178E+03
     -2.231  0.4338E+01  0.1182E+03
     -2.128  0.1182E+02  0.1197E+03
     -2.025  0.2250E+02  0.1231E+03
     -1.923  0.2395E+02  0.1263E+03
     -1.820  0.6477E+01  0.1272E+03
     -1.717  0.1273E+02  0.1285E+03
     -1.615  0.3516E+02  0.1336E+03
     -1.512  0.8264E+01  0.1352E+03
     -1.409  0.3847E+02  0.1400E+03
     -1.307  0.6280E+02  0.1483E+03
     -1.204  0.4992E+02  0.1550E+03
     -1.101  0.4800E+02  0.1609E+03
     -0.998  0.3639E+02  0.1674E+03
     -0.896  0.1093E+01  0.1680E+03
     -0.793  0.1404E+02  0.1697E+03
     -0.690  0.2103E+00  0.1710E+03
     -0.588  0.1181E+02  0.1724E+03
     -0.485  0.1728E+02  0.1742E+03
     -0.382  0.1655E-01  0.1742E+03
     -0.280  0.0000E+00  0.1747E+03
     -0.177  0.2044E-04  0.1747E+03
     -0.074  0.3513E+01  0.1750E+03
      0.028  0.2164E+01  0.1759E+03
      0.131  0.0000E+00  0.1759E+03
      0.234  0.0000E+00  0.1759E+03
      0.337  0.0000E+00  0.1759E+03
      0.439  0.4544E-05  0.1759E+03
      0.542  0.1082E+01  0.1760E+03
      0.645  0.0000E+00  0.1760E+03
      0.747  0.0000E+00  0.1760E+03
      0.850  0.0000E+00  0.1760E+03
      0.953  0.0000E+00  0.1760E+03
      1.055  0.0000E+00  0.1760E+03
      1.158  0.0000E+00  0.1760E+03
      1.261  0.0000E+00  0.1760E+03
      1.363  0.0000E+00  0.1760E+03
      1.466  0.0000E+00  0.1760E+03
      1.569  0.0000E+00  0.1760E+03
      1.672  0.0000E+00  0.1760E+03
      1.774  0.0000E+00  0.1760E+03
      1.877  0.0000E+00  0.1760E+03
      1.980  0.0000E+00  0.1760E+03
      2.082  0.0000E+00  0.1760E+03
      2.185  0.0000E+00  0.1760E+03
      2.288  0.0000E+00  0.1760E+03
      2.390  0.0000E+00  0.1760E+03
      2.493  0.0000E+00  0.1760E+03
      2.596  0.0000E+00  0.1760E+03
      2.699  0.4472E-12  0.1760E+03
      2.801  0.1085E+01  0.1761E+03
      2.904  0.1056E+01  0.1763E+03
      3.007  0.6473E+01  0.1770E+03
      3.109  0.1028E+02  0.1781E+03
      3.212  0.5401E-02  0.1782E+03
      3.315  0.9892E+01  0.1797E+03
      3.417  0.0000E+00  0.1801E+03
      3.520  0.4328E+01  0.1806E+03
      3.623  0.3437E+01  0.1809E+03
      3.725  0.2920E+01  0.1814E+03
      3.828  0.8818E+01  0.1827E+03
      3.931  0.1047E+02  0.1840E+03
      4.034  0.2165E+01  0.1842E+03
      4.136  0.1019E+02  0.1855E+03
      4.239  0.6650E-02  0.1856E+03
      4.342  0.7304E+00  0.1861E+03
      4.444  0.4648E-04  0.1862E+03
      4.547  0.1048E+02  0.1873E+03
      4.650  0.9684E-04  0.1880E+03
      4.752  0.1184E+02  0.1892E+03
      4.855  0.1085E+01  0.1899E+03
      4.958  0.3245E+01  0.1906E+03
      5.060  0.1276E+01  0.1907E+03
      5.163  0.1513E+02  0.1923E+03
      5.266  0.1594E+02  0.1940E+03
      5.369  0.2164E+01  0.1950E+03
      5.471  0.4328E+01  0.1954E+03
      5.574  0.1012E+01  0.1955E+03
      5.677  0.2164E+01  0.1961E+03
      5.779  0.3211E+01  0.1964E+03
      5.882  0.1620E+02  0.1981E+03
      5.985  0.5390E+01  0.1987E+03
      6.087  0.1461E+02  0.2002E+03
      6.190  0.9293E+01  0.2016E+03
      6.293  0.5390E+01  0.2029E+03
      6.395  0.2420E+02  0.2054E+03
      6.498  0.1733E+02  0.2082E+03
      6.601  0.1543E+02  0.2100E+03
      6.704  0.2096E+02  0.2125E+03
      6.806  0.1672E+02  0.2154E+03
      6.909  0.1987E+02  0.2183E+03
      7.012  0.3317E+02  0.2219E+03
      7.114  0.7506E+01  0.2235E+03
      7.217  0.2778E-06  0.2236E+03
      7.320  0.4328E+01  0.2240E+03
      7.422  0.0000E+00  0.2240E+03
      7.525  0.0000E+00  0.2240E+03
      7.628  0.0000E+00  0.2240E+03
      7.731  0.0000E+00  0.2240E+03
      7.833  0.0000E+00  0.2240E+03
      7.936  0.0000E+00  0.2240E+03
      8.039  0.0000E+00  0.2240E+03
      8.141  0.0000E+00  0.2240E+03
      8.244  0.0000E+00  0.2240E+03
      8.347  0.0000E+00  0.2240E+03
      8.449  0.0000E+00  0.2240E+03
      8.552  0.0000E+00  0.2240E+03
      8.655  0.0000E+00  0.2240E+03
      8.65475086    -22.15338595  301      0.56761495      1.00000000
    -22.153  0.0000E+00  0.0000E+00  0.0000E+00
    -22.051  0.0000E+00  0.0000E+00  0.0000E+00
    -21.948  0.0000E+00  0.0000E+00  0.0000E+00
    -21.845  0.0000E+00  0.0000E+00  0.0000E+00
    -21.743  0.0000E+00  0.0000E+00  0.0000E+00
    -21.640  0.0000E+00  0.0000E+00  0.0000E+00
    -21.537  0.0000E+00  0.0000E+00  0.0000E+00
    -21.435  0.0000E+00  0.0000E+00  0.0000E+00
    -21.332  0.0000E+00  0.0000E+00  0.0000E+00
    -21.229  0.0000E+00  0.0000E+00  0.0000E+00
    -21.126  0.0000E+00  0.0000E+00  0.0000E+00
    -21.024  0.0000E+00  0.0000E+00  0.0000E+00
    -20.921  0.0000E+00  0.0000E+00  0.0000E+00
    -20.818  0.0000E+00  0.0000E+00  0.0000E+00
    -20.716  0.1729E+02  0.3759E-05  0.2054E-05
    -20.613  0.0000E+00  0.0000E+00  0.0000E+00
    -20.510  0.0000E+00  0.0000E+00  0.0000E+00
    -20.408  0.0000E+00  0.0000E+00  0.0000E+00
    -20.305  0.0000E+00  0.0000E+00  0.0000E+00
    -20.202  0.0000E+00  0.0000E+00  0.0000E+00
    -20.100  0.0000E+00  0.0000E+00  0.0000E+00
    -19.997  0.0000E+00  0.0000E+00  0.0000E+00
    -19.894  0.0000E+00  0.0000E+00  0.0000E+00
    -19.791  0.0000E+00  0.0000E+00  0.0000E+00
    -19.689  0.0000E+00  0.0000E+00  0.0000E+00
    -19.586  0.0000E+00  0.0000E+00  0.0000E+00
    -19.483  0.0000E+00  0.0000E+00  0.0000E+00
    -19.381  0.0000E+00  0.0000E+00  0.0000E+00
    -19.278  0.0000E+00  0.0000E+00  0.0000E+00
    -19.175  0.0000E+00  0.0000E+00  0.0000E+00
    -19.073  0.0000E+00  0.0000E+00  0.0000E+00
    -18.970  0.0000E+00  0.0000E+00  0.0000E+00
    -18.867  0.0000E+00  0.0000E+00  0.0000E+00
    -18.764  0.0000E+00  0.0000E+00  0.0000E+00
    -18.662  0.0000E+00  0.0000E+00  0.0000E+00
    -18.559  0.0000E+00  0.0000E+00  0.0000E+00
    -18.456  0.0000E+00  0.0000E+00  0.0000E+00
    -18.354  0.0000E+00  0.0000E+00  0.0000E+00
    -18.251  0.0000E+00  0.0000E+00  0.0000E+00
    -18.148  0.0000E+00  0.0000E+00  0.0000E+00
    -18.046  0.0000E+00  0.0000E+00  0.0000E+00
    -17.943  0.0000E+00  0.0000E+00  0.0000E+00
    -17.840  0.0000E+00  0.0000E+00  0.0000E+00
    -17.738  0.0000E+00  0.0000E+00  0.0000E+00
    -17.635  0.0000E+00  0.0000E+00  0.0000E+00
    -17.532  0.0000E+00  0.0000E+00  0.0000E+00
    -17.429  0.0000E+00  0.0000E+00  0.0000E+00
    -17.327  0.0000E+00  0.0000E+00  0.0000E+00
    -17.224  0.0000E+00  0.0000E+00  0.0000E+00
    -17.121  0.0000E+00  0.0000E+00  0.0000E+00
    -17.019  0.0000E+00  0.0000E+00  0.0000E+00
    -16.916  0.0000E+00  0.0000E+00  0.0000E+00
    -16.813  0.0000E+00  0.0000E+00  0.0000E+00
    -16.711  0.0000E+00  0.0000E+00  0.0000E+00
    -16.608  0.0000E+00  0.0000E+00  0.0000E+00
    -16.505  0.1331E-19  0.9975E-19  0.1378E-19
    -16.403  0.1175E-03  0.7327E-04  0.1707E-04
    -16.300  0.1726E-04  0.2513E-04  0.2870E-05
    -16.197  0.0000E+00  0.0000E+00  0.0000E+00
    -16.094  0.0000E+00  0.0000E+00  0.0000E+00
    -15.992  0.0000E+00  0.0000E+00  0.0000E+00
    -15.889  0.0000E+00  0.0000E+00  0.0000E+00
    -15.786  0.0000E+00  0.0000E+00  0.0000E+00
    -15.684  0.0000E+00  0.0000E+00  0.0000E+00
    -15.581  0.0000E+00  0.0000E+00  0.0000E+00
    -15.478  0.0000E+00  0.0000E+00  0.0000E+00
    -15.376  0.0000E+00  0.0000E+00  0.0000E+00
    -15.273  0.0000E+00  0.0000E+00  0.0000E+00
    -15.170  0.0000E+00  0.0000E+00  0.0000E+00
    -15.068  0.0000E+00  0.0000E+00  0.0000E+00
    -14.965  0.0000E+00  0.0000E+00  0.0000E+00
    -14.862  0.0000E+00  0.0000E+00  0.0000E+00
    -14.759  0.0000E+00  0.0000E+00  0.0000E+00
    -14.657  0.0000E+00  0.0000E+00  0.0000E+00
    -14.554  0.0000E+00  0.0000E+00  0.0000E+00
    -14.451  0.0000E+00  0.0000E+00  0.0000E+00
    -14.349  0.7712E-07  0.5063E-09  0.8381E-10
    -14.246  0.2440E-02  0.5637E-03  0.1075E-04
    -14.143  0.4045E-02  0.3203E-02  0.9290E-04
    -14.041  0.5525E-03  0.5717E-02  0.2309E-03
    -13.938  0.1812E-02  0.4795E-02  0.4913E-03
    -13.835  0.1482E-02  0.4590E-02  0.4226E-03
    -13.732  0.1116E-02  0.2363E-02  0.3236E-03
    -13.630  0.0000E+00  0.0000E+00  0.0000E+00
    -13.527  0.0000E+00  0.0000E+00  0.0000E+00
    -13.424  0.0000E+00  0.0000E+00  0.0000E+00
    -13.322  0.0000E+00  0.0000E+00  0.0000E+00
    -13.219  0.0000E+00  0.0000E+00  0.0000E+00
    -13.116  0.0000E+00  0.0000E+00  0.0000E+00
    -13.014  0.0000E+00  0.0000E+00  0.0000E+00
    -12.911  0.0000E+00  0.0000E+00  0.0000E+00
    -12.808  0.0000E+00  0.0000E+00  0.0000E+00
    -12.706  0.0000E+00  0.0000E+00  0.0000E+00
    -12.603  0.0000E+00  0.0000E+00  0.0000E+00
    -12.500  0.0000E+00  0.0000E+00  0.0000E+00
    -12.397  0.0000E+00  0.0000E+00  0.0000E+00
    -12.295  0.0000E+00  0.0000E+00  0.0000E+00
    -12.192  0.0000E+00  0.0000E+00  0.0000E+00
    -12.089  0.0000E+00  0.0000E+00  0.0000E+00
    -11.987  0.0000E+00  0.0000E+00  0.0000E+00
    -11.884  0.0000E+00  0.0000E+00  0.0000E+00
    -11.781  0.0000E+00  0.0000E+00  0.0000E+00
    -11.679  0.0000E+00  0.0000E+00  0.0000E+00
    -11.576  0.0000E+00  0.0000E+00  0.0000E+00
    -11.473  0.0000E+00  0.0000E+00  0.0000E+00
    -11.371  0.0000E+00  0.0000E+00  0.0000E+00
    -11.268  0.0000E+00  0.0000E+00  0.0000E+00
    -11.165  0.0000E+00  0.0000E+00  0.0000E+00
    -11.062  0.0000E+00  0.0000E+00  0.0000E+00
    -10.960  0.0000E+00  0.0000E+00  0.0000E+00
    -10.857  0.0000E+00  0.0000E+00  0.0000E+00
    -10.754  0.0000E+00  0.0000E+00  0.0000E+00
    -10.652  0.0000E+00  0.0000E+00  0.0000E+00
    -10.549  0.0000E+00  0.0000E+00  0.0000E+00
    -10.446  0.0000E+00  0.0000E+00  0.0000E+00
    -10.344  0.0000E+00  0.0000E+00  0.0000E+00
    -10.241  0.0000E+00  0.0000E+00  0.0000E+00
    -10.138  0.0000E+00  0.0000E+00  0.0000E+00
    -10.036  0.0000E+00  0.0000E+00  0.0000E+00
     -9.933  0.0000E+00  0.0000E+00  0.0000E+00
     -9.830  0.0000E+00  0.0000E+00  0.0000E+00
     -9.727  0.0000E+00  0.0000E+00  0.0000E+00
     -9.625  0.0000E+00  0.0000E+00  0.0000E+00
     -9.522  0.0000E+00  0.0000E+00  0.0000E+00
     -9.419  0.0000E+00  0.0000E+00  0.0000E+00
     -9.317  0.0000E+00  0.0000E+00  0.0000E+00
     -9.214  0.0000E+00  0.0000E+00  0.0000E+00
     -9.111  0.0000E+00  0.0000E+00  0.0000E+00
     -9.009  0.0000E+00  0.0000E+00  0.0000E+00
     -8.906  0.0000E+00  0.0000E+00  0.0000E+00
     -8.803  0.0000E+00  0.0000E+00  0.0000E+00
     -8.700  0.0000E+00  0.0000E+00  0.0000E+00
     -8.598  0.0000E+00  0.0000E+00  0.0000E+00
     -8.495  0.0000E+00  0.0000E+00  0.0000E+00
     -8.392  0.0000E+00  0.0000E+00  0.0000E+00
     -8.290  0.0000E+00  0.0000E+00  0.0000E+00
     -8.187  0.2344E-24  0.3665E-15  0.7523E-12
     -8.084  0.1895E-17  0.2963E-08  0.6082E-05
     -7.982  0.4169E-26  0.9251E-11  0.3259E-13
     -7.879  0.1159E-06  0.5071E-02  0.3188E-04
     -7.776  0.3466E-16  0.1169E-01  0.8185E-05
     -7.674  0.1088E-04  0.2201E-01  0.4172E-04
     -7.571  0.2715E-05  0.5605E-01  0.3975E-04
     -7.468  0.1184E-10  0.5959E-02  0.2229E-05
     -7.365  0.1063E-04  0.7325E-01  0.1619E-04
     -7.263  0.4252E-04  0.2775E+00  0.7555E-04
     -7.160  0.4193E-04  0.1263E+02  0.5996E-04
     -7.057  0.2615E-04  0.1847E+02  0.5009E-04
     -6.955  0.3547E-04  0.3389E-01  0.1034E-04
     -6.852  0.5600E-04  0.4457E-01  0.2559E-04
     -6.749  0.0000E+00  0.0000E+00  0.0000E+00
     -6.647  0.0000E+00  0.0000E+00  0.0000E+00
     -6.544  0.3270E-09  0.6725E-07  0.1604E-10
     -6.441  0.1395E-04  0.2868E-02  0.6842E-06
     -6.339  0.0000E+00  0.0000E+00  0.0000E+00
     -6.236  0.0000E+00  0.0000E+00  0.0000E+00
     -6.133  0.0000E+00  0.0000E+00  0.0000E+00
     -6.030  0.0000E+00  0.0000E+00  0.0000E+00
     -5.928  0.0000E+00  0.0000E+00  0.0000E+00
     -5.825  0.0000E+00  0.0000E+00  0.0000E+00
     -5.722  0.0000E+00  0.0000E+00  0.0000E+00
     -5.620  0.0000E+00  0.0000E+00  0.0000E+00
     -5.517  0.0000E+00  0.0000E+00  0.0000E+00
     -5.414  0.0000E+00  0.0000E+00  0.0000E+00
     -5.312  0.0000E+00  0.0000E+00  0.0000E+00
     -5.209  0.0000E+00  0.0000E+00  0.0000E+00
     -5.106  0.0000E+00  0.0000E+00  0.0000E+00
     -5.004  0.0000E+00  0.0000E+00  0.0000E+00
     -4.901  0.0000E+00  0.0000E+00  0.0000E+00
     -4.798  0.0000E+00  0.0000E+00  0.0000E+00
     -4.695  0.0000E+00  0.0000E+00  0.0000E+00
     -4.593  0.0000E+00  0.0000E+00  0.0000E+00
     -4.490  0.0000E+00  0.0000E+00  0.0000E+00
     -4.387  0.0000E+00  0.0000E+00  0.0000E+00
     -4.285  0.0000E+00  0.0000E+00  0.0000E+00
     -4.182  0.0000E+00  0.0000E+00  0.0000E+00
     -4.079  0.0000E+00  0.0000E+00  0.0000E+00
     -3.977  0.0000E+00  0.0000E+00  0.0000E+00
     -3.874  0.0000E+00  0.0000E+00  0.0000E+00
     -3.771  0.0000E+00  0.0000E+00  0.0000E+00
     -3.669  0.0000E+00  0.0000E+00  0.0000E+00
     -3.566  0.0000E+00  0.0000E+00  0.0000E+00
     -3.463  0.0000E+00  0.0000E+00  0.0000E+00
     -3.360  0.0000E+00  0.0000E+00  0.0000E+00
     -3.258  0.9524E-05  0.2847E-02  0.3314E-04
     -3.155  0.1231E-03  0.1819E-01  0.1825E-02
     -3.052  0.2623E-05  0.6687E-02  0.7351E-03
     -2.950  0.1292E-03  0.5816E-02  0.1508E-03
     -2.847  0.2418E-03  0.1340E-01  0.7268E-03
     -2.744  0.1030E-02  0.2087E-01  0.2834E-02
     -2.642  0.1340E-03  0.9356E-02  0.9972E-03
     -2.539  0.2038E-12  0.3094E-11  0.1919E-12
     -2.436  0.1758E-02  0.2347E-01  0.1230E-02
     -2.333  0.1711E-02  0.1436E-01  0.3382E-02
     -2.231  0.7560E-03  0.2921E-02  0.4079E-03
     -2.128  0.2368E-02  0.2588E-01  0.1415E-02
     -2.025  0.1196E-01  0.1757E-01  0.4986E-02
     -1.923  0.2416E-01  0.3759E-01  0.3441E-02
     -1.820  0.1064E-02  0.3975E-01  0.8983E-03
     -1.717  0.1538E-02  0.7391E-01  0.3935E-02
     -1.615  0.2077E-02  0.1679E+00  0.1064E-01
     -1.512  0.1069E-02  0.2181E-01  0.2846E-02
     -1.409  0.4587E-02  0.6435E-01  0.1493E-01
     -1.307  0.4856E-02  0.8851E-01  0.2313E-01
     -1.204  0.6262E-02  0.7257E-01  0.1829E-01
     -1.101  0.2005E-02  0.6909E-01  0.1362E-01
     -0.998  0.6177E-03  0.7420E-01  0.1263E-01
     -0.896  0.1008E-03  0.8804E-04  0.5973E-03
     -0.793  0.4771E-03  0.1655E-01  0.3479E-02
     -0.690  0.1456E-04  0.2199E-03  0.2265E-04
     -0.588  0.6553E-03  0.4105E-02  0.1547E-02
     -0.485  0.2859E-03  0.5963E-02  0.1564E-02
     -0.382  0.1598E-17  0.5622E-06  0.3972E-05
     -0.280  0.0000E+00  0.0000E+00  0.0000E+00
     -0.177  0.1795E-10  0.6693E-08  0.3365E-08
     -0.074  0.9500E-06  0.5619E-03  0.4438E-03
      0.028  0.8609E-07  0.3536E-03  0.2560E-03
      0.131  0.0000E+00  0.0000E+00  0.0000E+00
      0.234  0.0000E+00  0.0000E+00  0.0000E+00
      0.337  0.0000E+00  0.0000E+00  0.0000E+00
      0.439  0.1337E-21  0.6354E-10  0.3291E-09
      0.542  0.3183E-16  0.1513E-04  0.7836E-04
      0.645  0.0000E+00  0.0000E+00  0.0000E+00
      0.747  0.0000E+00  0.0000E+00  0.0000E+00
      0.850  0.0000E+00  0.0000E+00  0.0000E+00
      0.953  0.0000E+00  0.0000E+00  0.0000E+00
      1.055  0.0000E+00  0.0000E+00  0.0000E+00
      1.158  0.0000E+00  0.0000E+00  0.0000E+00
      1.261  0.0000E+00  0.0000E+00  0.0000E+00
      1.363  0.0000E+00  0.0000E+00  0.0000E+00
      1.466  0.0000E+00  0.0000E+00  0.0000E+00
      1.569  0.0000E+00  0.0000E+00  0.0000E+00
      1.672  0.0000E+00  0.0000E+00  0.0000E+00
      1.774  0.0000E+00  0.0000E+00  0.0000E+00
      1.877  0.0000E+00  0.0000E+00  0.0000E+00
      1.980  0.0000E+00  0.0000E+00  0.0000E+00
      2.082  0.0000E+00  0.0000E+00  0.0000E+00
      2.185  0.0000E+00  0.0000E+00  0.0000E+00
      2.288  0.0000E+00  0.0000E+00  0.0000E+00
      2.390  0.0000E+00  0.0000E+00  0.0000E+00
      2.493  0.0000E+00  0.0000E+00  0.0000E+00
      2.596  0.0000E+00  0.0000E+00  0.0000E+00
      2.699  0.1055E-29  0.9334E-17  0.3508E-15
      2.801  0.8640E-07  0.2305E-04  0.8503E-03
      2.904  0.8354E-15  0.1867E-04  0.1072E-02
      3.007  0.6271E-03  0.1045E-02  0.3013E-02
      3.109  0.7785E-03  0.9822E-03  0.4213E-02
      3.212  0.5935E-08  0.1774E-05  0.1960E-05
      3.315  0.5537E-03  0.2562E-02  0.3377E-02
      3.417  0.0000E+00  0.0000E+00  0.0000E+00
      3.520  0.4738E-03  0.1211E-02  0.8874E-03
      3.623  0.8265E-06  0.7840E-03  0.1722E-02
      3.725  0.1103E-03  0.4512E-03  0.3140E-02
      3.828  0.4930E-03  0.2035E-02  0.7741E-02
      3.931  0.8358E-03  0.5021E-02  0.4943E-02
      4.034  0.2387E-03  0.3977E-03  0.1079E-02
      4.136  0.9928E-03  0.6127E-02  0.2251E-02
      4.239  0.2020E-05  0.2638E-05  0.2554E-05
      4.342  0.9258E-05  0.9921E-04  0.1075E-02
      4.444  0.5377E-08  0.1998E-07  0.5458E-07
      4.547  0.1290E-02  0.2996E-02  0.1145E-01
      4.650  0.6156E-08  0.5824E-07  0.6046E-07
      4.752  0.1347E-02  0.6529E-02  0.7002E-02
      4.855  0.7863E-14  0.2998E-04  0.3019E-02
      4.958  0.1342E-01  0.1065E-02  0.1089E-02
      5.060  0.5384E-07  0.2049E-03  0.1337E-02
      5.163  0.5478E-03  0.6047E-02  0.2268E-01
      5.266  0.1883E-01  0.9477E-02  0.1691E-01
      5.369  0.9680E-02  0.3431E-02  0.1040E-02
      5.471  0.1828E-02  0.5598E-03  0.6459E-02
      5.574  0.6240E-10  0.2435E-04  0.1310E-02
      5.677  0.1858E-01  0.3633E-02  0.2893E-02
      5.779  0.1062E-01  0.1697E-02  0.9356E-02
      5.882  0.9772E-02  0.3270E-02  0.2753E-01
      5.985  0.2830E-01  0.1485E-01  0.5445E-02
      6.087  0.1065E-01  0.4489E-02  0.9707E-01
      6.190  0.4355E-01  0.7983E-02  0.8774E-01
      6.293  0.7701E-02  0.3783E-02  0.1444E+00
      6.395  0.8035E-01  0.3592E-01  0.4756E+00
      6.498  0.2424E-01  0.2164E-01  0.4802E+00
      6.601  0.3277E-01  0.1120E-01  0.3742E+00
      6.704  0.5266E-01  0.3731E-01  0.4677E+00
      6.806  0.2521E-01  0.3164E-01  0.4557E+00
      6.909  0.1373E-01  0.3899E-01  0.6395E+00
      7.012  0.4783E-01  0.6268E-01  0.9445E+00
      7.114  0.6282E-02  0.2374E-01  0.2174E+00
      7.217  0.2428E-09  0.1133E-08  0.9944E-08
      7.320  0.3782E-02  0.1765E-01  0.1549E+00
      7.422  0.0000E+00  0.0000E+00  0.0000E+00
      7.525  0.0000E+00  0.0000E+00  0.0000E+00
      7.628  0.0000E+00  0.0000E+00  0.0000E+00
      7.731  0.0000E+00  0.0000E+00  0.0000E+00
      7.833  0.0000E+00  0.0000E+00  0.0000E+00
      7.936  0.0000E+00  0.0000E+00  0.0000E+00
      8.039  0.0000E+00  0.0000E+00  0.0000E+00
      8.141  0.0000E+00  0.0000E+00  0.0000E+00
      8.244  0.0000E+00  0.0000E+00  0.0000E+00
      8.347  0.0000E+00  0.0000E+00  0.0000E+00
      8.449  0.0000E+00  0.0000E+00  0.0000E+00
      8.552  0.0000E+00  0.0000E+00  0.0000E+00
      8.655  0.0000E+00  0.0000E+00  0.0000E+00
      8.65475086    -22.15338595  301      0.56761495      1.00000000
    -22.153  0.0000E+00  0.0000E+00  0.0000E+00
    -22.051  0.0000E+00  0.0000E+00  0.0000E+00
    -21.948  0.0000E+00  0.0000E+00  0.0000E+00
    -21.845  0.0000E+00  0.0000E+00  0.0000E+00
    -21.743  0.0000E+00  0.0000E+00  0.0000E+00
    -21.640  0.0000E+00  0.0000E+00  0.0000E+00
    -21.537  0.0000E+00  0.0000E+00  0.0000E+00
    -21.435  0.0000E+00  0.0000E+00  0.0000E+00
    -21.332  0.0000E+00  0.0000E+00  0.0000E+00
    -21.229  0.0000E+00  0.0000E+00  0.0000E+00
    -21.126  0.0000E+00  0.0000E+00  0.0000E+00
    -21.024  0.0000E+00  0.0000E+00  0.0000E+00
    -20.921  0.0000E+00  0.0000E+00  0.0000E+00
    -20.818  0.0000E+00  0.0000E+00  0.0000E+00
    -20.716  0.1729E+02  0.3759E-05  0.2054E-05
    -20.613  0.0000E+00  0.0000E+00  0.0000E+00
    -20.510  0.0000E+00  0.0000E+00  0.0000E+00
    -20.408  0.0000E+00  0.0000E+00  0.0000E+00
    -20.305  0.0000E+00  0.0000E+00  0.0000E+00
    -20.202  0.0000E+00  0.0000E+00  0.0000E+00
    -20.100  0.0000E+00  0.0000E+00  0.0000E+00
    -19.997  0.0000E+00  0.0000E+00  0.0000E+00
    -19.894  0.0000E+00  0.0000E+00  0.0000E+00
    -19.791  0.0000E+00  0.0000E+00  0.0000E+00
    -19.689  0.0000E+00  0.0000E+00  0.0000E+00
    -19.586  0.0000E+00  0.0000E+00  0.0000E+00
    -19.483  0.0000E+00  0.0000E+00  0.0000E+00
    -19.381  0.0000E+00  0.0000E+00  0.0000E+00
    -19.278  0.0000E+00  0.0000E+00  0.0000E+00
    -19.175  0.0000E+00  0.0000E+00  0.0000E+00
    -19.073  0.0000E+00  0.0000E+00  0.0000E+00
    -18.970  0.0000E+00  0.0000E+00  0.0000E+00
    -18.867  0.0000E+00  0.0000E+00  0.0000E+00
    -18.764  0.0000E+00  0.0000E+00  0.0000E+00
    -18.662  0.0000E+00  0.0000E+00  0.0000E+00
    -18.559  0.0000E+00  0.0000E+00  0.0000E+00
    -18.456  0.0000E+00  0.0000E+00  0.0000E+00
    -18.354  0.0000E+00  0.0000E+00  0.0000E+00
    -18.251  0.0000E+00  0.0000E+00  0.0000E+00
    -18.148  0.0000E+00  0.0000E+00  0.0000E+00
    -18.046  0.0000E+00  0.0000E+00  0.0000E+00
    -17.943  0.0000E+00  0.0000E+00  0.0000E+00
    -17.840  0.0000E+00  0.0000E+00  0.0000E+00
    -17.738  0.0000E+00  0.0000E+00  0.0000E+00
    -17.635  0.0000E+00  0.0000E+00  0.0000E+00
    -17.532  0.0000E+00  0.0000E+00  0.0000E+00
    -17.429  0.0000E+00  0.0000E+00  0.0000E+00
    -17.327  0.0000E+00  0.0000E+00  0.0000E+00
    -17.224  0.0000E+00  0.0000E+00  0.0000E+00
    -17.121  0.0000E+00  0.0000E+00  0.0000E+00
    -17.019  0.0000E+00  0.0000E+00  0.0000E+00
    -16.916  0.0000E+00  0.0000E+00  0.0000E+00
    -16.813  0.0000E+00  0.0000E+00  0.0000E+00
    -16.711  0.0000E+00  0.0000E+00  0.0000E+00
    -16.608  0.0000E+00  0.0000E+00  0.0000E+00
    -16.505  0.1331E-19  0.9975E-19  0.1378E-19
    -16.403  0.1175E-03  0.7327E-04  0.1707E-04
    -16.300  0.1726E-04  0.2513E-04  0.2870E-05
    -16.197  0.0000E+00  0.0000E+00  0.0000E+00
    -16.094  0.0000E+00  0.0000E+00  0.0000E+00
    -15.992  0.0000E+00  0.0000E+00  0.0000E+00
    -15.889  0.0000E+00  0.0000E+00  0.0000E+00
    -15.786  0.0000E+00  0.0000E+00  0.0000E+00
    -15.684  0.0000E+00  0.0000E+00  0.0000E+00
    -15.581  0.0000E+00  0.0000E+00  0.0000E+00
    -15.478  0.0000E+00  0.0000E+00  0.0000E+00
    -15.376  0.0000E+00  0.0000E+00  0.0000E+00
    -15.273  0.0000E+00  0.0000E+00  0.0000E+00
    -15.170  0.0000E+00  0.0000E+00  0.0000E+00
    -15.068  0.0000E+00  0.0000E+00  0.0000E+00
    -14.965  0.0000E+00  0.0000E+00  0.0000E+00
    -14.862  0.0000E+00  0.0000E+00  0.0000E+00
    -14.759  0.0000E+00  0.0000E+00  0.0000E+00
    -14.657  0.0000E+00  0.0000E+00  0.0000E+00
    -14.554  0.0000E+00  0.0000E+00  0.0000E+00
    -14.451  0.0000E+00  0.0000E+00  0.0000E+00
    -14.349  0.7712E-07  0.5063E-09  0.8381E-10
    -14.246  0.2440E-02  0.5637E-03  0.1075E-04
    -14.143  0.4045E-02  0.3203E-02  0.9290E-04
    -14.041  0.5525E-03  0.5717E-02  0.2309E-03
    -13.938  0.1812E-02  0.4795E-02  0.4913E-03
    -13.835  0.1482E-02  0.4590E-02  0.4226E-03
    -13.732  0.1116E-02  0.2363E-02  0.3236E-03
    -13.630  0.0000E+00  0.0000E+00  0.0000E+00
    -13.527  0.0000E+00  0.0000E+00  0.0000E+00
    -13.424  0.0000E+00  0.0000E+00  0.0000E+00
    -13.322  0.0000E+00  0.0000E+00  0.0000E+00
    -13.219  0.0000E+00  0.0000E+00  0.0000E+00
    -13.116  0.0000E+00  0.0000E+00  0.0000E+00
    -13.014  0.0000E+00  0.0000E+00  0.0000E+00