<?xml version="1.0" encoding="ISO-8859-1"?>
<modeling>
 <generator>
  <i name="program" type="string">vasp </i>
  <i name="version" type="string">5.4.4.18Apr17-6-g9f103f2a35  </i>
  <i name="subversion" type="string">(build Jun 22 2020 09:27:21) complex            parallel </i>
  <i name="platform" type="string">tx2_gcc-7.3_libsci-18.07_cray-fftw-3.3.8 </i>
  <i name="date" type="string">2021 09 20 </i>
  <i name="time" type="string">15:16:56 </i>
 </generator>
 <incar>
  <i type="string" name="SYSTEM"> CsPbBr3 cubic bulk</i>
  <i type="string" name="PREC">accurate</i>
  <i type="string" name="ALGO"> NORMAL   ! Electronic minimisation algo</i>
  <i type="logical" name="ADDGRID"> T  </i>
  <i type="int" name="NELM">   200</i>
  <i type="int" name="IBRION">     2</i>
  <i name="EDIFF">      0.00000100</i>
  <i name="EDIFFG">     -0.01000000</i>
  <i type="int" name="NSW">     0</i>
  <i type="int" name="ISIF">     3</i>
  <i type="int" name="ISYM">     2</i>
  <i name="ENCUT">    300.00000000</i>
  <i name="POTIM">      0.50000000</i>
  <i type="string" name="LREAL"> AUTO</i>
  <i type="int" name="ISMEAR">     0</i>
  <i name="SIGMA">      0.01000000</i>
  <i type="logical" name="LWAVE"> F  </i>
  <i type="logical" name="LCHARG"> F  </i>
  <i type="logical" name="LVHAR"> T  </i>
  <i type="int" name="LORBIT">    10</i>
  <i type="logical" name="LASPH"> T  </i>
  <v type="int" name="KPOINT_BSE">    -1     0     0     0</v>
  <i type="int" name="NELM">   200</i>
  <i type="string" name="METAGGA"> SCAN       ! PBE exchange-correlation</i>
  <i type="logical" name="LASPH"> T  </i>
 </incar>
 <structure name="primitive_cell" >
  <crystal>
   <varray name="basis" >
    <v>      -5.94469573      -5.94469573       0.00000000 </v>
    <v>      -5.73988822       5.73988822       0.00000000 </v>
    <v>       0.00000000       0.00000000     -11.74238932 </v>
   </varray>
   <i name="volume">    801.34501050 </i>
   <varray name="rec_basis" >
    <v>      -0.08410859      -0.08410859      -0.00000000 </v>
    <v>      -0.08710971       0.08710971       0.00000000 </v>
    <v>      -0.00000000       0.00000000      -0.08516154 </v>
   </varray>
  </crystal>
  <varray name="positions" >
   <v>      -0.43872586       0.01823886      -0.25000000 </v>
   <v>       0.29590415       0.20113458      -0.03687631 </v>
   <v>       0.29590415       0.20113458      -0.46312369 </v>
   <v>       0.49341930      -0.43028597      -0.25000000 </v>
   <v>      -0.00658070      -0.06971403      -0.25000000 </v>
   <v>      -0.20409585       0.29886542      -0.03687631 </v>
   <v>      -0.20409585       0.29886542      -0.46312369 </v>
   <v>      -0.29590415      -0.20113458       0.03687631 </v>
   <v>      -0.29590415      -0.20113458       0.46312369 </v>
   <v>       0.00000000       0.00000000       0.00000000 </v>
   <v>       0.00000000       0.00000000      -0.50000000 </v>
   <v>      -0.50000000      -0.50000000       0.00000000 </v>
   <v>      -0.50000000      -0.50000000      -0.50000000 </v>
   <v>       0.20409585      -0.29886542       0.03687631 </v>
   <v>       0.20409585      -0.29886542       0.46312369 </v>
   <v>       0.06127414       0.48176114      -0.25000000 </v>
   <v>       0.43872586      -0.01823886       0.25000000 </v>
   <v>      -0.49341930       0.43028597       0.25000000 </v>
   <v>       0.00658070       0.06971403       0.25000000 </v>
   <v>      -0.06127414      -0.48176114       0.25000000 </v>
  </varray>
 </structure>
 <varray name="primitive_index" >
  <v type="int" >        1 </v>
  <v type="int" >       19 </v>
  <v type="int" >       20 </v>
  <v type="int" >       15 </v>
  <v type="int" >       13 </v>
  <v type="int" >        9 </v>
  <v type="int" >       10 </v>
  <v type="int" >       17 </v>
  <v type="int" >       18 </v>
  <v type="int" >        5 </v>
  <v type="int" >        6 </v>
  <v type="int" >        7 </v>
  <v type="int" >        8 </v>
  <v type="int" >       11 </v>
  <v type="int" >       12 </v>
  <v type="int" >        3 </v>
  <v type="int" >        2 </v>
  <v type="int" >       16 </v>
  <v type="int" >       14 </v>
  <v type="int" >        4 </v>
 </varray>
 <kpoints>
  <generation param="Gamma">
   <v type="int" name="divisions">       3        3        2 </v>
   <v name="usershift">      0.00000000       0.00000000       0.00000000 </v>
   <v name="genvec1">      0.33333333      -0.00000000       0.00000000 </v>
   <v name="genvec2">     -0.00000000       0.33333333       0.00000000 </v>
   <v name="genvec3">      0.00000000       0.00000000       0.50000000 </v>
   <v name="shift">      0.00000000       0.00000000       0.00000000 </v>
  </generation>
  <varray name="kpointlist" >
   <v>       0.00000000       0.00000000       0.00000000 </v>
   <v>       0.33333333       0.00000000       0.00000000 </v>
   <v>       0.00000000       0.33333333       0.00000000 </v>
   <v>       0.33333333       0.33333333       0.00000000 </v>
   <v>       0.00000000       0.00000000       0.50000000 </v>
   <v>       0.33333333       0.00000000       0.50000000 </v>
   <v>       0.00000000       0.33333333       0.50000000 </v>
   <v>       0.33333333       0.33333333       0.50000000 </v>
  </varray>
  <varray name="weights" >
   <v>       0.05555556 </v>
   <v>       0.11111111 </v>
   <v>       0.11111111 </v>
   <v>       0.22222222 </v>
   <v>       0.05555556 </v>
   <v>       0.11111111 </v>
   <v>       0.11111111 </v>
   <v>       0.22222222 </v>
  </varray>
 </kpoints>
 <parameters>
  <separator name="general" >
   <i type="string" name="SYSTEM">CsPbBr3 cubic bulk</i>
   <i type="logical" name="LCOMPAT"> F  </i>
  </separator>
  <separator name="electronic" >
   <i type="string" name="PREC">accura</i>
   <i name="ENMAX">    300.00000000</i>
   <i name="ENAUG">    503.85200000</i>
   <i name="EDIFF">      0.00000100</i>
   <i type="int" name="IALGO">    38</i>
   <i type="int" name="IWAVPR">    10</i>
   <i type="int" name="NBANDS">   112</i>
   <i name="NELECT">    176.00000000</i>
   <i type="int" name="TURBO">     0</i>
   <i type="int" name="IRESTART">     0</i>
   <i type="int" name="NREBOOT">     0</i>
   <i type="int" name="NMIN">     0</i>
   <i name="EREF">      0.00000000</i>
   <separator name="electronic smearing" >
    <i type="int" name="ISMEAR">     0</i>
    <i name="SIGMA">      0.01000000</i>
    <i name="KSPACING">      0.50000000</i>
    <i type="logical" name="KGAMMA"> T  </i>
   </separator>
   <separator name="electronic projectors" >
    <i type="logical" name="LREAL"> T  </i>
    <v name="ROPT">     -0.00025000     -0.00025000     -0.00025000</v>
    <i type="int" name="LMAXPAW">  -100</i>
    <i type="int" name="LMAXMIX">     2</i>
    <i type="logical" name="NLSPLINE"> F  </i>
   </separator>
   <separator name="electronic startup" >
    <i type="int" name="ISTART">     0</i>
    <i type="int" name="ICHARG">     2</i>
    <i type="int" name="INIWAV">     1</i>
   </separator>
   <separator name="electronic spin" >
    <i type="int" name="ISPIN">     1</i>
    <i type="logical" name="LNONCOLLINEAR"> F  </i>
    <v name="MAGMOM">      1.00000000      1.00000000      1.00000000      1.00000000      1.00000000      1.00000000      1.00000000      1.00000000      1.00000000      1.00000000      1.00000000      1.00000000      1.00000000      1.00000000      1.00000000      1.00000000      1.00000000      1.00000000      1.00000000      1.00000000
</v>
    <i name="NUPDOWN">     -1.00000000</i>
    <i type="logical" name="LSORBIT"> F  </i>
    <v name="SAXIS">      0.00000000      0.00000000      1.00000000</v>
    <i type="logical" name="LSPIRAL"> F  </i>
    <v name="QSPIRAL">      0.00000000      0.00000000      0.00000000</v>
    <i type="logical" name="LZEROZ"> F  </i>
   </separator>
   <separator name="electronic exchange-correlation" >
    <i type="logical" name="LASPH"> T  </i>
    <i type="logical" name="LMETAGGA"> F  </i>
   </separator>
   <separator name="electronic convergence" >
    <i type="int" name="NELM">   200</i>
    <i type="int" name="NELMDL">     0</i>
    <i type="int" name="NELMIN">     2</i>
    <i name="ENINI">    300.00000000</i>
    <separator name="electronic convergence detail" >
     <i type="logical" name="LDIAG"> T  </i>
     <i type="logical" name="LSUBROT"> F  </i>
     <i name="WEIMIN">      0.00000000</i>
     <i name="EBREAK">      0.00000000</i>
     <i name="DEPER">      0.30000000</i>
     <i type="int" name="NRMM">     4</i>
     <i name="TIME">      0.40000000</i>
    </separator>
   </separator>
   <separator name="electronic mixer" >
    <i name="AMIX">      0.40000000</i>
    <i name="BMIX">      1.00000000</i>
    <i name="AMIN">      0.10000000</i>
    <i name="AMIX_MAG">      1.60000000</i>
    <i name="BMIX_MAG">      1.00000000</i>
    <separator name="electronic mixer details" >
     <i type="int" name="IMIX">     4</i>
     <i type="logical" name="MIXFIRST"> F  </i>
     <i type="int" name="MAXMIX">   -45</i>
     <i name="WC">    100.00000000</i>
     <i type="int" name="INIMIX">     1</i>
     <i type="int" name="MIXPRE">     1</i>
     <i type="int" name="MREMOVE">     5</i>
    </separator>
   </separator>
   <separator name="electronic dipolcorrection" >
    <i type="logical" name="LDIPOL"> F  </i>
    <i type="logical" name="LMONO"> F  </i>
    <i type="int" name="IDIPOL">     0</i>
    <i name="EPSILON">      1.00000000</i>
    <v name="DIPOL">   -100.00000000   -100.00000000   -100.00000000</v>
    <i name="EFIELD">      0.00000000</i>
   </separator>
  </separator>
  <separator name="grids" >
   <i type="int" name="NGX">    48</i>
   <i type="int" name="NGY">    48</i>
   <i type="int" name="NGZ">    70</i>
   <i type="int" name="NGXF">    96</i>
   <i type="int" name="NGYF">    96</i>
   <i type="int" name="NGZF">   140</i>
   <i type="logical" name="ADDGRID"> T  </i>
  </separator>
  <separator name="ionic" >
   <i type="int" name="NSW">     0</i>
   <i type="int" name="IBRION">    -1</i>
   <i type="int" name="MDALGO">     0</i>
   <i type="int" name="ISIF">     3</i>
   <i name="PSTRESS">      0.00000000</i>
   <i name="EDIFFG">     -0.01000000</i>
   <i type="int" name="NFREE">     1</i>
   <i name="POTIM">      0.50000000</i>
   <i name="SMASS">     -3.00000000</i>
   <i name="SCALEE">      1.00000000</i>
  </separator>
  <separator name="ionic md" >
   <i name="TEBEG">      0.00010000</i>
   <i name="TEEND">      0.00010000</i>
   <i type="int" name="NBLOCK">     1</i>
   <i type="int" name="KBLOCK">     1</i>
   <i type="int" name="NPACO">   256</i>
   <i name="APACO">     16.00000000</i>
  </separator>
  <separator name="symmetry" >
   <i type="int" name="ISYM">     2</i>
   <i name="SYMPREC">      0.00001000</i>
  </separator>
  <separator name="dos" >
   <i type="int" name="LORBIT">    10</i>
   <v name="RWIGS">     -1.00000000     -1.00000000     -1.00000000</v>
   <i type="int" name="NEDOS">   301</i>
   <i name="EMIN">     10.00000000</i>
   <i name="EMAX">    -10.00000000</i>
   <i name="EFERMI">      0.00000000</i>
  </separator>
  <separator name="writing" >
   <i type="int" name="NWRITE">     2</i>
   <i type="logical" name="LWAVE"> F  </i>
   <i type="logical" name="LDOWNSAMPLE"> F  </i>
   <i type="logical" name="LCHARG"> F  </i>
   <i type="logical" name="LPARD"> F  </i>
   <i type="logical" name="LVTOT"> F  </i>
   <i type="logical" name="LVHAR"> T  </i>
   <i type="logical" name="LELF"> F  </i>
   <i type="logical" name="LOPTICS"> F  </i>
   <v name="STM">      0.00000000      0.00000000      0.00000000      0.00000000      0.00000000      0.00000000      0.00000000</v>
  </separator>
  <separator name="performance" >
   <i type="int" name="NPAR">     8</i>
   <i type="int" name="NSIM">     4</i>
   <i type="int" name="NBLK">    -1</i>
   <i type="logical" name="LPLANE"> T  </i>
   <i type="logical" name="LSCALAPACK"> T  </i>
   <i type="logical" name="LSCAAWARE"> F  </i>
   <i type="logical" name="LSCALU"> F  </i>
   <i type="logical" name="LASYNC"> F  </i>
   <i type="logical" name="LORBITALREAL"> F  </i>
  </separator>
  <separator name="miscellaneous" >
   <i type="int" name="IDIOT">     3</i>
   <i type="int" name="ISPECIAL">     0</i>
   <i type="logical" name="LMUSIC"> F  </i>
   <v name="POMASS">    132.90000000    207.20000000     79.90400000</v>
   <v name="DARWINR">      0.00000000      0.00000000      0.00000000</v>
   <v name="DARWINV">      1.00000000      1.00000000      1.00000000</v>
   <i type="logical" name="LCORR"> T  </i>
  </separator>
  <i type="logical" name="GGA_COMPAT"> T  </i>
  <i type="logical" name="LBERRY"> F  </i>
  <i type="int" name="ICORELEVEL">     0</i>
  <i type="logical" name="LDAU"> F  </i>
  <i type="int" name="I_CONSTRAINED_M">     0</i>
  <separator name="electronic exchange-correlation" >
   <i type="string" name="GGA">--</i>
   <i type="int" name="VOSKOWN">     0</i>
   <i type="logical" name="LHFCALC"> F  </i>
   <i type="string" name="PRECFOCK"></i>
   <i type="logical" name="LSYMGRAD"> F  </i>
   <i type="logical" name="LHFONE"> F  </i>
   <i type="logical" name="LRHFCALC"> F  </i>
   <i type="logical" name="LTHOMAS"> F  </i>
   <i type="logical" name="LMODELHF"> F  </i>
   <i name="ENCUT4O">     -1.00000000</i>
   <i type="int" name="EXXOEP">     0</i>
   <i type="int" name="FOURORBIT">     0</i>
   <i name="AEXX">      0.00000000</i>
   <i name="HFALPHA">      0.00000000</i>
   <i name="MCALPHA">      0.00000000</i>
   <i name="ALDAX">      1.00000000</i>
   <i name="AGGAX">      1.00000000</i>
   <i name="ALDAC">      1.00000000</i>
   <i name="AGGAC">      1.00000000</i>
   <i type="int" name="NKREDX">     1</i>
   <i type="int" name="NKREDY">     1</i>
   <i type="int" name="NKREDZ">     1</i>
   <i type="logical" name="SHIFTRED"> F  </i>
   <i type="logical" name="ODDONLY"> F  </i>
   <i type="logical" name="EVENONLY"> F  </i>
   <i type="int" name="LMAXFOCK">     0</i>
   <i type="int" name="NMAXFOCKAE">     0</i>
   <i type="logical" name="LFOCKAEDFT"> F  </i>
   <i name="HFSCREEN">      0.00000000</i>
   <i name="HFSCREENC">      0.00000000</i>
   <i type="int" name="NBANDSGWLOW">     0</i>
  </separator>
  <separator name="vdW DFT" >
   <i type="logical" name="LUSE_VDW"> F  </i>
   <i name="Zab_VDW">     -0.84910000</i>
   <i name="PARAM1">      0.12340000</i>
   <i name="PARAM2">      1.00000000</i>
   <i name="PARAM3">      0.00000000</i>
  </separator>
  <separator name="model GW" >
   <i type="int" name="MODEL_GW">     0</i>
   <i name="MODEL_EPS0">     24.04035031</i>
   <i name="MODEL_ALPHA">      1.00000000</i>
  </separator>
  <separator name="linear response parameters" >
   <i type="logical" name="LEPSILON"> F  </i>
   <i type="logical" name="LRPA"> F  </i>
   <i type="logical" name="LNABLA"> F  </i>
   <i type="logical" name="LVEL"> F  </i>
   <i type="int" name="KINTER">     0</i>
   <i name="CSHIFT">      0.10000000</i>
   <i name="OMEGAMAX">     -1.00000000</i>
   <i name="DEG_THRESHOLD">      0.00200000</i>
   <i name="RTIME">     -0.10000000</i>
   <i name="WPLASMAI">      0.00000000</i>
   <v name="DFIELD">      0.00000000      0.00000000      0.00000000</v>
   <v name="WPLASMA">      0.00000000      0.00000000      0.00000000      0.00000000      0.00000000      0.00000000      0.00000000      0.00000000      0.00000000</v>
  </separator>
  <separator name="orbital magnetization" >
   <i type="logical" name="NUCIND"> F  </i>
   <v name="MAGPOS">      0.00000000      0.00000000      0.00000000</v>
   <i type="logical" name="LNICSALL"> T  </i>
   <i type="logical" name="ORBITALMAG"> F  </i>
   <i type="logical" name="LMAGBLOCH"> F  </i>
   <i type="logical" name="LCHIMAG"> F  </i>
   <i type="logical" name="LGAUGE"> T  </i>
   <i type="int" name="MAGATOM">     0</i>
   <v name="MAGDIPOL">      0.00000000      0.00000000      0.00000000</v>
   <v name="AVECCONST">      0.00000000      0.00000000      0.00000000</v>
  </separator>
  <separator name="response functions" >
   <i type="logical" name="LADDER"> F  </i>
   <i type="logical" name="LRPAFORCE"> F  </i>
   <i type="logical" name="LFXC"> F  </i>
   <i type="logical" name="LHARTREE"> T  </i>
   <i type="int" name="IBSE">     0</i>
   <v type="int" name="KPOINT">    -1     0     0     0</v>
   <i type="logical" name="LTCTE"> F  </i>
   <i type="logical" name="LTETE"> F  </i>
   <i type="logical" name="LTRIPLET"> F  </i>
   <i type="logical" name="LFXCEPS"> F  </i>
   <i type="logical" name="LFXHEG"> F  </i>
   <i type="int" name="NATURALO">     2</i>
   <i type="logical" name="L2ORDER"> F  </i>
   <i type="logical" name="LMP2LT"> F  </i>
   <i type="logical" name="LUSEW"> F  </i>
   <i name="ENCUTGW">     -2.00000000</i>
   <i name="ENCUTGWSOFT">     -2.00000000</i>
   <i name="ENCUTLF">     -1.00000000</i>
   <i type="int" name="LMAXMP2">    -1</i>
   <i name="SCISSOR">      0.00000000</i>
   <i type="int" name="NOMEGA">     0</i>
   <i type="int" name="NOMEGAR">     0</i>
   <i type="int" name="NBANDSGW">    -1</i>
   <i type="int" name="NBANDSO">    -1</i>
   <i type="int" name="NBANDSV">    -1</i>
   <i type="int" name="NELM">   200</i>
   <i type="int" name="NELMHF">     1</i>
   <i type="int" name="DIM">     3</i>
   <i type="int" name="ANTIRES">     0</i>
   <i name="OMEGAMAX">    -30.00000000</i>
   <i name="OMEGAMIN">    -30.00000000</i>
   <i name="OMEGATL">   -200.00000000</i>
   <i type="int" name="OMEGAGRID">   140</i>
   <i name="CSHIFT">     -0.10000000</i>
   <i type="logical" name="SELFENERGY"> F  </i>
   <i type="logical" name="LSPECTRAL"> F  </i>
   <i type="logical" name="LSPECTRALGW"> F  </i>
   <i type="logical" name="LSINGLES"> F  </i>
   <i type="logical" name="LFERMIGW"> F  </i>
   <i type="logical" name="ODDONLYGW"> F  </i>
   <i type="logical" name="EVENONLYGW"> F  </i>
   <i type="int" name="NKREDLFX">     1</i>
   <i type="int" name="NKREDLFY">     1</i>
   <i type="int" name="NKREDLFZ">     1</i>
   <i type="int" name="MAXMEM">  2800</i>
   <i type="int" name="TELESCOPE">     0</i>
   <i type="int" name="TAUPAR">     1</i>
   <i type="int" name="OMEGAPAR">    -1</i>
   <i name="LAMBDA">      1.00000000</i>
  </separator>
  <separator name="External order field" >
   <i name="OFIELD_KAPPA">      0.00000000</i>
   <v name="OFIELD_K">      0.00000000      0.00000000      0.00000000</v>
   <i name="OFIELD_Q6_NEAR">      0.00000000</i>
   <i name="OFIELD_Q6_FAR">      0.00000000</i>
   <i name="OFIELD_A">      0.00000000</i>
  </separator>
 </parameters>
 <atominfo>
  <atoms>      20 </atoms>
  <types>       3 </types>
  <array name="atoms" >
   <dimension dim="1">ion</dimension>
   <field type="string">element</field>
   <field type="int">atomtype</field>
   <set>
    <rc><c>Cs</c><c>   1</c></rc>
    <rc><c>Cs</c><c>   1</c></rc>
    <rc><c>Cs</c><c>   1</c></rc>
    <rc><c>Cs</c><c>   1</c></rc>
    <rc><c>Pb</c><c>   2</c></rc>
    <rc><c>Pb</c><c>   2</c></rc>
    <rc><c>Pb</c><c>   2</c></rc>
    <rc><c>Pb</c><c>   2</c></rc>
    <rc><c>Br</c><c>   3</c></rc>
    <rc><c>Br</c><c>   3</c></rc>
    <rc><c>Br</c><c>   3</c></rc>
    <rc><c>Br</c><c>   3</c></rc>
    <rc><c>Br</c><c>   3</c></rc>
    <rc><c>Br</c><c>   3</c></rc>
    <rc><c>Br</c><c>   3</c></rc>
    <rc><c>Br</c><c>   3</c></rc>
    <rc><c>Br</c><c>   3</c></rc>
    <rc><c>Br</c><c>   3</c></rc>
    <rc><c>Br</c><c>   3</c></rc>
    <rc><c>Br</c><c>   3</c></rc>
   </set>
  </array>
  <array name="atomtypes" >
   <dimension dim="1">type</dimension>
   <field type="int">atomspertype</field>
   <field type="string">element</field>
   <field>mass</field>
   <field>valence</field>
   <field type="string">pseudopotential</field>
   <set>
    <rc><c>   4</c><c>Cs</c><c>    132.90000000</c><c>      9.00000000</c><c>  PAW_PBE Cs_sv 08Apr2002               </c></rc>
    <rc><c>   4</c><c>Pb</c><c>    207.20000000</c><c>     14.00000000</c><c>  PAW_PBE Pb_d 06Sep2000                </c></rc>
    <rc><c>  12</c><c>Br</c><c>     79.90400000</c><c>      7.00000000</c><c>  PAW_PBE Br 06Sep2000                  </c></rc>
   </set>
  </array>
 </atominfo>
 <structure name="initialpos" >
  <crystal>
   <varray name="basis" >
    <v>      -5.94469573      -5.94469573       0.00000000 </v>
    <v>      -5.73988822       5.73988822       0.00000000 </v>
    <v>       0.00000000       0.00000000     -11.74238932 </v>
   </varray>
   <i name="volume">    801.34501050 </i>
   <varray name="rec_basis" >
    <v>      -0.08410859      -0.08410859      -0.00000000 </v>
    <v>      -0.08710971       0.08710971       0.00000000 </v>
    <v>      -0.00000000       0.00000000      -0.08516154 </v>
   </varray>
  </crystal>
  <varray name="positions" >
   <v>       0.56127414       0.01823886       0.75000000 </v>
   <v>       0.43872586       0.98176114       0.25000000 </v>
   <v>       0.06127414       0.48176114       0.75000000 </v>
   <v>       0.93872586       0.51823886       0.25000000 </v>
   <v>       0.00000000       0.00000000       0.00000000 </v>
   <v>       0.00000000       0.00000000       0.50000000 </v>
   <v>       0.50000000       0.50000000       0.00000000 </v>
   <v>       0.50000000       0.50000000       0.50000000 </v>
   <v>       0.79590415       0.29886542       0.96312369 </v>
   <v>       0.79590415       0.29886542       0.53687631 </v>
   <v>       0.20409585       0.70113458       0.03687631 </v>
   <v>       0.20409585       0.70113458       0.46312369 </v>
   <v>       0.99341930       0.93028597       0.75000000 </v>
   <v>       0.00658070       0.06971403       0.25000000 </v>
   <v>       0.49341930       0.56971403       0.75000000 </v>
   <v>       0.50658070       0.43028597       0.25000000 </v>
   <v>       0.70409585       0.79886542       0.03687631 </v>
   <v>       0.70409585       0.79886542       0.46312369 </v>
   <v>       0.29590415       0.20113458       0.96312369 </v>
   <v>       0.29590415       0.20113458       0.53687631 </v>
  </varray>
 </structure>
 <calculation>
  <scstep>
   <time name="dav">    3.83    3.84</time>
   <time name="total">    5.11    5.13</time>
   <energy>
    <i name="alphaZ">    450.25417147 </i>
    <i name="ewald">  -9233.66077751 </i>
    <i name="hartreedc">  -3652.22790597 </i>
    <i name="XCdc">    462.08180290 </i>
    <i name="pawpsdc">  10816.98087266 </i>
    <i name="pawaedc"> -11353.96092700 </i>
    <i name="eentropy">     -0.00099728 </i>
    <i name="bandstr">   -115.81496949 </i>
    <i name="atom">  13290.28009929 </i>
    <i name="e_fr_energy">    663.93136906 </i>
    <i name="e_wo_entrp">    663.93236634 </i>
    <i name="e_0_energy">    663.93186770 </i>
   </energy>
  </scstep>
  <scstep>
   <time name="dav">    4.38    4.44</time>
   <time name="total">    4.38    4.44</time>
   <energy>
    <i name="e_fr_energy">   -578.61012802 </i>
    <i name="e_wo_entrp">   -578.61012802 </i>
    <i name="e_0_energy">   -578.61012802 </i>
   </energy>
  </scstep>
  <scstep>
   <time name="dav">    4.67    4.68</time>
   <time name="total">    4.67    4.68</time>
   <energy>
    <i name="e_fr_energy">   -749.25930317 </i>
    <i name="e_wo_entrp">   -749.25930317 </i>
    <i name="e_0_energy">   -749.25930317 </i>
   </energy>
  </scstep>
  <scstep>
   <time name="dav">    4.29    4.32</time>
   <time name="total">    4.29    4.32</time>
   <energy>
    <i name="e_fr_energy">   -754.54125170 </i>
    <i name="e_wo_entrp">   -754.54125170 </i>
    <i name="e_0_energy">   -754.54125170 </i>
   </energy>
  </scstep>
  <scstep>
   <time name="dav">    4.59    4.62</time>
   <time name="total">    5.42    5.45</time>
   <energy>
    <i name="e_fr_energy">   -754.77807050 </i>
    <i name="e_wo_entrp">   -754.77807050 </i>
    <i name="e_0_energy">   -754.77807050 </i>
   </energy>
  </scstep>
  <scstep>
   <time name="dav">    4.53    4.53</time>
   <time name="total">    6.60    6.64</time>
   <energy>
    <i name="e_fr_energy">   -715.01165571 </i>
    <i name="e_wo_entrp">   -715.01165571 </i>
    <i name="e_0_energy">   -715.01165571 </i>
   </energy>
  </scstep>
  <scstep>
   <time name="dav">    4.40    4.40</time>
   <time name="total">    6.50    6.53</time>
   <energy>
    <i name="e_fr_energy">   -714.78293319 </i>
    <i name="e_wo_entrp">   -714.78293319 </i>
    <i name="e_0_energy">   -714.78293319 </i>
   </energy>
  </scstep>
  <scstep>
   <time name="dav">    4.25    4.25</time>
   <time name="total">    6.35    6.38</time>
   <energy>
    <i name="e_fr_energy">   -714.87756111 </i>
    <i name="e_wo_entrp">   -714.87756111 </i>
    <i name="e_0_energy">   -714.87756111 </i>
   </energy>
  </scstep>
  <scstep>
   <time name="dav">    4.06    4.06</time>
   <time name="total">    6.16    6.17</time>
   <energy>
    <i name="e_fr_energy">   -714.91806842 </i>
    <i name="e_wo_entrp">   -714.91806842 </i>
    <i name="e_0_energy">   -714.91806842 </i>
   </energy>
  </scstep>
  <scstep>
   <time name="dav">    4.70    4.70</time>
   <time name="total">    6.77    6.80</time>
   <energy>
    <i name="e_fr_energy">   -714.91880151 </i>
    <i name="e_wo_entrp">   -714.91880151 </i>
    <i name="e_0_energy">   -714.91880151 </i>
   </energy>
  </scstep>
  <scstep>
   <time name="dav">    4.10    4.10</time>
   <time name="total">    6.18    6.20</time>
   <energy>
    <i name="e_fr_energy">   -714.92018042 </i>
    <i name="e_wo_entrp">   -714.92018042 </i>
    <i name="e_0_energy">   -714.92018042 </i>
   </energy>
  </scstep>
  <scstep>
   <time name="dav">    4.15    4.15</time>
   <time name="total">    6.23    6.28</time>
   <energy>
    <i name="e_fr_energy">   -714.92030363 </i>
    <i name="e_wo_entrp">   -714.92030363 </i>
    <i name="e_0_energy">   -714.92030363 </i>
   </energy>
  </scstep>
  <scstep>
   <time name="dav">    4.44    4.44</time>
   <time name="total">    6.59    6.59</time>
   <energy>
    <i name="e_fr_energy">   -714.92031550 </i>
    <i name="e_wo_entrp">   -714.92031550 </i>
    <i name="e_0_energy">   -714.92031550 </i>
   </energy>
  </scstep>
  <scstep>
   <time name="dav">    3.74    3.74</time>
   <time name="total">    5.82    5.87</time>
   <energy>
    <i name="e_fr_energy">   -714.92032493 </i>
    <i name="e_wo_entrp">   -714.92032493 </i>
    <i name="e_0_energy">   -714.92032493 </i>
   </energy>
  </scstep>
  <scstep>
   <time name="dav">    3.17    3.17</time>
   <time name="total">    5.25    5.31</time>
   <energy>
    <i name="e_fr_energy">   -714.92033205 </i>
    <i name="e_wo_entrp">   -714.92033205 </i>
    <i name="e_0_energy">   -714.92033205 </i>
   </energy>
  </scstep>
  <scstep>
   <time name="dav">    3.05    3.05</time>
   <time name="total">    5.15    5.17</time>
   <energy>
    <i name="e_fr_energy">   -714.92032766 </i>
    <i name="e_wo_entrp">   -714.92032766 </i>
    <i name="e_0_energy">   -714.92032766 </i>
   </energy>
  </scstep>
  <scstep>
   <time name="dav">    2.98    2.98</time>
   <time name="total">    5.06    5.09</time>
   <energy>
    <i name="e_fr_energy">   -714.92032622 </i>
    <i name="e_wo_entrp">   -714.92032622 </i>
    <i name="e_0_energy">   -714.92032622 </i>
   </energy>
  </scstep>
  <scstep>
   <time name="dav">    2.97    2.97</time>
   <time name="total">    4.27    4.31</time>
   <energy>
    <i name="alphaZ">    450.25417147 </i>
    <i name="ewald">  -9233.66077751 </i>
    <i name="hartreedc">  -3664.97017268 </i>
    <i name="XCdc">    481.48785494 </i>
    <i name="pawpsdc">  11546.36838463 </i>
    <i name="pawaedc"> -12082.44188233 </i>
    <i name="eentropy">     -0.00000000 </i>
    <i name="bandstr">  -1502.23800406 </i>
    <i name="atom">  13290.28009929 </i>
    <i name="e_fr_energy">   -714.92032624 </i>
    <i name="e_wo_entrp">   -714.92032624 </i>
    <i name="e_0_energy">   -714.92032624 </i>
   </energy>
  </scstep>
  <structure>
   <crystal>
    <varray name="basis" >
     <v>      -5.94469573      -5.94469573       0.00000000 </v>
     <v>      -5.73988822       5.73988822       0.00000000 </v>
     <v>       0.00000000       0.00000000     -11.74238932 </v>
    </varray>
    <i name="volume">    801.34501050 </i>
    <varray name="rec_basis" >
     <v>      -0.08410859      -0.08410859      -0.00000000 </v>
     <v>      -0.08710971       0.08710971       0.00000000 </v>
     <v>      -0.00000000       0.00000000      -0.08516154 </v>
    </varray>
   </crystal>
   <varray name="positions" >
    <v>       0.56127414       0.01823886       0.75000000 </v>
    <v>       0.43872586       0.98176114       0.25000000 </v>
    <v>       0.06127414       0.48176114       0.75000000 </v>
    <v>       0.93872586       0.51823886       0.25000000 </v>
    <v>       0.00000000       0.00000000       0.00000000 </v>
    <v>       0.00000000       0.00000000       0.50000000 </v>
    <v>       0.50000000       0.50000000       0.00000000 </v>
    <v>       0.50000000       0.50000000       0.50000000 </v>
    <v>       0.79590415       0.29886542       0.96312369 </v>
    <v>       0.79590415       0.29886542       0.53687631 </v>
    <v>       0.20409585       0.70113458       0.03687631 </v>
    <v>       0.20409585       0.70113458       0.46312369 </v>
    <v>       0.99341930       0.93028597       0.75000000 </v>
    <v>       0.00658070       0.06971403       0.25000000 </v>
    <v>       0.49341930       0.56971403       0.75000000 </v>
    <v>       0.50658070       0.43028597       0.25000000 </v>
    <v>       0.70409585       0.79886542       0.03687631 </v>
    <v>       0.70409585       0.79886542       0.46312369 </v>
    <v>       0.29590415       0.20113458       0.96312369 </v>
    <v>       0.29590415       0.20113458       0.53687631 </v>
   </varray>
  </structure>
  <varray name="forces" >
   <v>      -0.00421252      -0.00211927       0.00000000 </v>
   <v>       0.00421252       0.00211927       0.00000000 </v>
   <v>      -0.00211927      -0.00421252       0.00000000 </v>
   <v>       0.00211927       0.00421252       0.00000000 </v>
   <v>      -0.00000000       0.00000000       0.00000000 </v>
   <v>      -0.00000000       0.00000000       0.00000000 </v>
   <v>      -0.00000000       0.00000000       0.00000000 </v>
   <v>      -0.00000000       0.00000000       0.00000000 </v>
   <v>      -0.00038604       0.00201492      -0.01003233 </v>
   <v>      -0.00038604       0.00201492       0.01003233 </v>
   <v>       0.00038604      -0.00201492       0.01003233 </v>
   <v>       0.00038604      -0.00201492      -0.01003233 </v>
   <v>       0.02829219      -0.00975538       0.00000000 </v>
   <v>      -0.02829219       0.00975538       0.00000000 </v>
   <v>      -0.00975538       0.02829219       0.00000000 </v>
   <v>       0.00975538      -0.02829219       0.00000000 </v>
   <v>      -0.00201492       0.00038604       0.01003233 </v>
   <v>      -0.00201492       0.00038604      -0.01003233 </v>
   <v>       0.00201492      -0.00038604      -0.01003233 </v>
   <v>       0.00201492      -0.00038604       0.01003233 </v>
  </varray>
  <varray name="stress" >
   <v>      -1.78799179       0.19336834       0.00000000 </v>
   <v>       0.19336834      -1.78799179       0.00000000 </v>
   <v>       0.00000000       0.00000000      -0.90683426 </v>
  </varray>
  <energy>
   <i name="e_fr_energy">   -714.92032624 </i>
   <i name="e_wo_entrp">   -714.92032624 </i>
   <i name="e_0_energy">     -0.00000000 </i>
  </energy>
  <time name="totalsc">  115.45  116.06</time>
  <eigenvalues>
   <array>
    <dimension dim="1">band</dimension>
    <dimension dim="2">kpoint</dimension>
    <dimension dim="3">spin</dimension>
    <field>eigene</field>
    <field>occ</field>
    <set>
     <set comment="spin 1">
      <set comment="kpoint 1">
       <r>  -20.7530    1.0000 </r>
       <r>  -20.7513    1.0000 </r>
       <r>  -20.7491    1.0000 </r>
       <r>  -20.7480    1.0000 </r>
       <r>  -16.4523    1.0000 </r>
       <r>  -16.4426    1.0000 </r>
       <r>  -16.4423    1.0000 </r>
       <r>  -16.4265    1.0000 </r>
       <r>  -16.3935    1.0000 </r>
       <r>  -16.3615    1.0000 </r>
       <r>  -16.3556    1.0000 </r>
       <r>  -16.3555    1.0000 </r>
       <r>  -16.2929    1.0000 </r>
       <r>  -16.2924    1.0000 </r>
       <r>  -16.2918    1.0000 </r>
       <r>  -16.2914    1.0000 </r>
       <r>  -16.2913    1.0000 </r>
       <r>  -16.2910    1.0000 </r>
       <r>  -16.2904    1.0000 </r>
       <r>  -16.2900    1.0000 </r>
       <r>  -16.2846    1.0000 </r>
       <r>  -16.2841    1.0000 </r>
       <r>  -16.2833    1.0000 </r>
       <r>  -16.2829    1.0000 </r>
       <r>  -14.3232    1.0000 </r>
       <r>  -14.1404    1.0000 </r>
       <r>  -14.0090    1.0000 </r>
       <r>  -14.0033    1.0000 </r>
       <r>  -13.9962    1.0000 </r>
       <r>  -13.9852    1.0000 </r>
       <r>  -13.9847    1.0000 </r>
       <r>  -13.9770    1.0000 </r>
       <r>  -13.9417    1.0000 </r>
       <r>  -13.7266    1.0000 </r>
       <r>  -13.7261    1.0000 </r>
       <r>  -13.7207    1.0000 </r>
       <r>   -8.1505    1.0000 </r>
       <r>   -7.6481    1.0000 </r>
       <r>   -7.1961    1.0000 </r>
       <r>   -7.1836    1.0000 </r>
       <r>   -7.1827    1.0000 </r>
       <r>   -7.1826    1.0000 </r>
       <r>   -7.1589    1.0000 </r>
       <r>   -7.1588    1.0000 </r>
       <r>   -7.1550    1.0000 </r>
       <r>   -7.1501    1.0000 </r>
       <r>   -7.1431    1.0000 </r>
       <r>   -7.1403    1.0000 </r>
       <r>   -7.1255    1.0000 </r>
       <r>   -7.1188    1.0000 </r>
       <r>   -7.0983    1.0000 </r>
       <r>   -6.5151    1.0000 </r>
       <r>   -3.2827    1.0000 </r>
       <r>   -3.2543    1.0000 </r>
       <r>   -3.2278    1.0000 </r>
       <r>   -3.1450    1.0000 </r>
       <r>   -3.1251    1.0000 </r>
       <r>   -3.0726    1.0000 </r>
       <r>   -2.1114    1.0000 </r>
       <r>   -1.8974    1.0000 </r>
       <r>   -1.8508    1.0000 </r>
       <r>   -1.8460    1.0000 </r>
       <r>   -1.8356    1.0000 </r>
       <r>   -1.7590    1.0000 </r>
       <r>   -1.6022    1.0000 </r>
       <r>   -1.5030    1.0000 </r>
       <r>   -1.4764    1.0000 </r>
       <r>   -1.4618    1.0000 </r>
       <r>   -1.4040    1.0000 </r>
       <r>   -1.4032    1.0000 </r>
       <r>   -1.3886    1.0000 </r>
       <r>   -1.3714    1.0000 </r>
       <r>   -1.3429    1.0000 </r>
       <r>   -1.3311    1.0000 </r>
       <r>   -1.3226    1.0000 </r>
       <r>   -1.2998    1.0000 </r>
       <r>   -1.2979    1.0000 </r>
       <r>   -1.2031    1.0000 </r>
       <r>   -1.1139    1.0000 </r>
       <r>   -1.0989    1.0000 </r>
       <r>   -1.0876    1.0000 </r>
       <r>   -1.0351    1.0000 </r>
       <r>   -0.9936    1.0000 </r>
       <r>   -0.9671    1.0000 </r>
       <r>   -0.7918    1.0000 </r>
       <r>   -0.6129    1.0000 </r>
       <r>   -0.1478    1.0000 </r>
       <r>    0.4707    1.0000 </r>
       <r>    2.7491    0.0000 </r>
       <r>    2.8209    0.0000 </r>
       <r>    2.8899    0.0000 </r>
       <r>    3.1299    0.0000 </r>
       <r>    3.3286    0.0000 </r>
       <r>    3.5480    0.0000 </r>
       <r>    4.9348    0.0000 </r>
       <r>    5.7158    0.0000 </r>
       <r>    5.8494    0.0000 </r>
       <r>    5.9405    0.0000 </r>
       <r>    6.0797    0.0000 </r>
       <r>    6.0808    0.0000 </r>
       <r>    6.1598    0.0000 </r>
       <r>    6.2777    0.0000 </r>
       <r>    6.3641    0.0000 </r>
       <r>    6.3787    0.0000 </r>
       <r>    6.5500    0.0000 </r>
       <r>    6.5539    0.0000 </r>
       <r>    6.6163    0.0000 </r>
       <r>    6.7777    0.0000 </r>
       <r>    6.8472    0.0000 </r>
       <r>    6.8750    0.0000 </r>
       <r>    6.9442    0.0000 </r>
       <r>    7.0643    0.0000 </r>
      </set>
      <set comment="kpoint 2">
       <r>  -20.7521    1.0000 </r>
       <r>  -20.7505    1.0000 </r>
       <r>  -20.7500    1.0000 </r>
       <r>  -20.7488    1.0000 </r>
       <r>  -16.4456    1.0000 </r>
       <r>  -16.4327    1.0000 </r>
       <r>  -16.4220    1.0000 </r>
       <r>  -16.4218    1.0000 </r>
       <r>  -16.3854    1.0000 </r>
       <r>  -16.3786    1.0000 </r>
       <r>  -16.3784    1.0000 </r>
       <r>  -16.3694    1.0000 </r>
       <r>  -16.2926    1.0000 </r>
       <r>  -16.2922    1.0000 </r>
       <r>  -16.2921    1.0000 </r>
       <r>  -16.2916    1.0000 </r>
       <r>  -16.2913    1.0000 </r>
       <r>  -16.2912    1.0000 </r>
       <r>  -16.2905    1.0000 </r>
       <r>  -16.2901    1.0000 </r>
       <r>  -16.2843    1.0000 </r>
       <r>  -16.2838    1.0000 </r>
       <r>  -16.2837    1.0000 </r>
       <r>  -16.2833    1.0000 </r>
       <r>  -14.2740    1.0000 </r>
       <r>  -14.1413    1.0000 </r>
       <r>  -14.1041    1.0000 </r>
       <r>  -14.0266    1.0000 </r>
       <r>  -14.0082    1.0000 </r>
       <r>  -14.0051    1.0000 </r>
       <r>  -13.9201    1.0000 </r>
       <r>  -13.9128    1.0000 </r>
       <r>  -13.8261    1.0000 </r>
       <r>  -13.7909    1.0000 </r>
       <r>  -13.7848    1.0000 </r>
       <r>  -13.7492    1.0000 </r>
       <r>   -7.9409    1.0000 </r>
       <r>   -7.4641    1.0000 </r>
       <r>   -7.4350    1.0000 </r>
       <r>   -7.2005    1.0000 </r>
       <r>   -7.1723    1.0000 </r>
       <r>   -7.1710    1.0000 </r>
       <r>   -7.1703    1.0000 </r>
       <r>   -7.1523    1.0000 </r>
       <r>   -7.1494    1.0000 </r>
       <r>   -7.1395    1.0000 </r>
       <r>   -7.1377    1.0000 </r>
       <r>   -7.1296    1.0000 </r>
       <r>   -7.1229    1.0000 </r>
       <r>   -7.1177    1.0000 </r>
       <r>   -7.1153    1.0000 </r>
       <r>   -6.8591    1.0000 </r>
       <r>   -3.2355    1.0000 </r>
       <r>   -3.1392    1.0000 </r>
       <r>   -2.9550    1.0000 </r>
       <r>   -2.8273    1.0000 </r>
       <r>   -2.7076    1.0000 </r>
       <r>   -2.6836    1.0000 </r>
       <r>   -2.2127    1.0000 </r>
       <r>   -2.0963    1.0000 </r>
       <r>   -2.0417    1.0000 </r>
       <r>   -1.9528    1.0000 </r>
       <r>   -1.9500    1.0000 </r>
       <r>   -1.9122    1.0000 </r>
       <r>   -1.7923    1.0000 </r>
       <r>   -1.6745    1.0000 </r>
       <r>   -1.6377    1.0000 </r>
       <r>   -1.5873    1.0000 </r>
       <r>   -1.4296    1.0000 </r>
       <r>   -1.4020    1.0000 </r>
       <r>   -1.3764    1.0000 </r>
       <r>   -1.3714    1.0000 </r>
       <r>   -1.3488    1.0000 </r>
       <r>   -1.3475    1.0000 </r>
       <r>   -1.2796    1.0000 </r>
       <r>   -1.2732    1.0000 </r>
       <r>   -1.2245    1.0000 </r>
       <r>   -1.1761    1.0000 </r>
       <r>   -1.1734    1.0000 </r>
       <r>   -1.1733    1.0000 </r>
       <r>   -1.1022    1.0000 </r>
       <r>   -1.0924    1.0000 </r>
       <r>   -1.0306    1.0000 </r>
       <r>   -0.9885    1.0000 </r>
       <r>   -0.7874    1.0000 </r>
       <r>   -0.6527    1.0000 </r>
       <r>   -0.5008    1.0000 </r>
       <r>   -0.0654    1.0000 </r>
       <r>    2.9894    0.0000 </r>
       <r>    3.3277    0.0000 </r>
       <r>    3.5689    0.0000 </r>
       <r>    3.7617    0.0000 </r>
       <r>    3.9187    0.0000 </r>
       <r>    4.1323    0.0000 </r>
       <r>    5.1059    0.0000 </r>
       <r>    5.1454    0.0000 </r>
       <r>    5.2186    0.0000 </r>
       <r>    5.4174    0.0000 </r>
       <r>    5.8441    0.0000 </r>
       <r>    5.8629    0.0000 </r>
       <r>    6.2026    0.0000 </r>
       <r>    6.2709    0.0000 </r>
       <r>    6.4023    0.0000 </r>
       <r>    6.4643    0.0000 </r>
       <r>    6.5429    0.0000 </r>
       <r>    6.5537    0.0000 </r>
       <r>    6.5924    0.0000 </r>
       <r>    6.7408    0.0000 </r>
       <r>    6.8738    0.0000 </r>
       <r>    7.0229    0.0000 </r>
       <r>    7.0905    0.0000 </r>
       <r>    7.1011    0.0000 </r>
      </set>
      <set comment="kpoint 3">
       <r>  -20.7520    1.0000 </r>
       <r>  -20.7508    1.0000 </r>
       <r>  -20.7497    1.0000 </r>
       <r>  -20.7487    1.0000 </r>
       <r>  -16.4456    1.0000 </r>
       <r>  -16.4326    1.0000 </r>
       <r>  -16.4221    1.0000 </r>
       <r>  -16.4218    1.0000 </r>
       <r>  -16.3854    1.0000 </r>
       <r>  -16.3785    1.0000 </r>
       <r>  -16.3784    1.0000 </r>
       <r>  -16.3694    1.0000 </r>
       <r>  -16.2926    1.0000 </r>
       <r>  -16.2921    1.0000 </r>
       <r>  -16.2921    1.0000 </r>
       <r>  -16.2915    1.0000 </r>
       <r>  -16.2913    1.0000 </r>
       <r>  -16.2910    1.0000 </r>
       <r>  -16.2903    1.0000 </r>
       <r>  -16.2902    1.0000 </r>
       <r>  -16.2842    1.0000 </r>
       <r>  -16.2838    1.0000 </r>
       <r>  -16.2836    1.0000 </r>
       <r>  -16.2832    1.0000 </r>
       <r>  -14.2728    1.0000 </r>
       <r>  -14.1366    1.0000 </r>
       <r>  -14.1022    1.0000 </r>
       <r>  -14.0206    1.0000 </r>
       <r>  -14.0088    1.0000 </r>
       <r>  -14.0058    1.0000 </r>
       <r>  -13.9291    1.0000 </r>
       <r>  -13.9189    1.0000 </r>
       <r>  -13.8233    1.0000 </r>
       <r>  -13.7933    1.0000 </r>
       <r>  -13.7868    1.0000 </r>
       <r>  -13.7482    1.0000 </r>
       <r>   -7.9385    1.0000 </r>
       <r>   -7.4514    1.0000 </r>
       <r>   -7.4327    1.0000 </r>
       <r>   -7.1785    1.0000 </r>
       <r>   -7.1759    1.0000 </r>
       <r>   -7.1749    1.0000 </r>
       <r>   -7.1668    1.0000 </r>
       <r>   -7.1560    1.0000 </r>
       <r>   -7.1532    1.0000 </r>
       <r>   -7.1486    1.0000 </r>
       <r>   -7.1378    1.0000 </r>
       <r>   -7.1284    1.0000 </r>
       <r>   -7.1242    1.0000 </r>
       <r>   -7.1153    1.0000 </r>
       <r>   -7.1124    1.0000 </r>
       <r>   -6.8600    1.0000 </r>
       <r>   -3.2356    1.0000 </r>
       <r>   -3.1385    1.0000 </r>
       <r>   -2.9480    1.0000 </r>
       <r>   -2.8253    1.0000 </r>
       <r>   -2.7359    1.0000 </r>
       <r>   -2.6552    1.0000 </r>
       <r>   -2.2782    1.0000 </r>
       <r>   -2.0717    1.0000 </r>
       <r>   -2.0516    1.0000 </r>
       <r>   -1.9909    1.0000 </r>
       <r>   -1.9508    1.0000 </r>
       <r>   -1.8600    1.0000 </r>
       <r>   -1.7838    1.0000 </r>
       <r>   -1.6791    1.0000 </r>
       <r>   -1.6021    1.0000 </r>
       <r>   -1.5967    1.0000 </r>
       <r>   -1.4302    1.0000 </r>
       <r>   -1.4068    1.0000 </r>
       <r>   -1.3811    1.0000 </r>
       <r>   -1.3373    1.0000 </r>
       <r>   -1.3203    1.0000 </r>
       <r>   -1.3016    1.0000 </r>
       <r>   -1.2764    1.0000 </r>
       <r>   -1.2712    1.0000 </r>
       <r>   -1.2334    1.0000 </r>
       <r>   -1.2130    1.0000 </r>
       <r>   -1.1731    1.0000 </r>
       <r>   -1.1644    1.0000 </r>
       <r>   -1.1001    1.0000 </r>
       <r>   -1.0891    1.0000 </r>
       <r>   -1.0185    1.0000 </r>
       <r>   -0.9909    1.0000 </r>
       <r>   -0.8776    1.0000 </r>
       <r>   -0.6812    1.0000 </r>
       <r>   -0.5277    1.0000 </r>
       <r>   -0.1103    1.0000 </r>
       <r>    2.9848    0.0000 </r>
       <r>    3.3142    0.0000 </r>
       <r>    3.6323    0.0000 </r>
       <r>    3.6710    0.0000 </r>
       <r>    4.0081    0.0000 </r>
       <r>    4.0558    0.0000 </r>
       <r>    5.0589    0.0000 </r>
       <r>    5.1272    0.0000 </r>
       <r>    5.2987    0.0000 </r>
       <r>    5.4260    0.0000 </r>
       <r>    5.7643    0.0000 </r>
       <r>    5.8651    0.0000 </r>
       <r>    6.1384    0.0000 </r>
       <r>    6.2035    0.0000 </r>
       <r>    6.2290    0.0000 </r>
       <r>    6.4676    0.0000 </r>
       <r>    6.5142    0.0000 </r>
       <r>    6.6827    0.0000 </r>
       <r>    6.7088    0.0000 </r>
       <r>    6.9136    0.0000 </r>
       <r>    6.9586    0.0000 </r>
       <r>    6.9925    0.0000 </r>
       <r>    6.9927    0.0000 </r>
       <r>    7.0203    0.0000 </r>
      </set>
      <set comment="kpoint 4">
       <r>  -20.7515    1.0000 </r>
       <r>  -20.7506    1.0000 </r>
       <r>  -20.7500    1.0000 </r>
       <r>  -20.7491    1.0000 </r>
       <r>  -16.4500    1.0000 </r>
       <r>  -16.4415    1.0000 </r>
       <r>  -16.4210    1.0000 </r>
       <r>  -16.4039    1.0000 </r>
       <r>  -16.4028    1.0000 </r>
       <r>  -16.3841    1.0000 </r>
       <r>  -16.3716    1.0000 </r>
       <r>  -16.3599    1.0000 </r>
       <r>  -16.2925    1.0000 </r>
       <r>  -16.2924    1.0000 </r>
       <r>  -16.2919    1.0000 </r>
       <r>  -16.2917    1.0000 </r>
       <r>  -16.2913    1.0000 </r>
       <r>  -16.2911    1.0000 </r>
       <r>  -16.2903    1.0000 </r>
       <r>  -16.2902    1.0000 </r>
       <r>  -16.2841    1.0000 </r>
       <r>  -16.2839    1.0000 </r>
       <r>  -16.2836    1.0000 </r>
       <r>  -16.2834    1.0000 </r>
       <r>  -14.2231    1.0000 </r>
       <r>  -14.1278    1.0000 </r>
       <r>  -14.0621    1.0000 </r>
       <r>  -14.0120    1.0000 </r>
       <r>  -14.0079    1.0000 </r>
       <r>  -13.9921    1.0000 </r>
       <r>  -13.9895    1.0000 </r>
       <r>  -13.9386    1.0000 </r>
       <r>  -13.8949    1.0000 </r>
       <r>  -13.8434    1.0000 </r>
       <r>  -13.7516    1.0000 </r>
       <r>  -13.7175    1.0000 </r>
       <r>   -7.8110    1.0000 </r>
       <r>   -7.5696    1.0000 </r>
       <r>   -7.2988    1.0000 </r>
       <r>   -7.1718    1.0000 </r>
       <r>   -7.1650    1.0000 </r>
       <r>   -7.1597    1.0000 </r>
       <r>   -7.1588    1.0000 </r>
       <r>   -7.1515    1.0000 </r>
       <r>   -7.1465    1.0000 </r>
       <r>   -7.1410    1.0000 </r>
       <r>   -7.1367    1.0000 </r>
       <r>   -7.1324    1.0000 </r>
       <r>   -7.1237    1.0000 </r>
       <r>   -7.1220    1.0000 </r>
       <r>   -7.1036    1.0000 </r>
       <r>   -6.9752    1.0000 </r>
       <r>   -3.2248    1.0000 </r>
       <r>   -3.1846    1.0000 </r>
       <r>   -3.1748    1.0000 </r>
       <r>   -3.0327    1.0000 </r>
       <r>   -2.7968    1.0000 </r>
       <r>   -2.6471    1.0000 </r>
       <r>   -2.1827    1.0000 </r>
       <r>   -2.0557    1.0000 </r>
       <r>   -2.0533    1.0000 </r>
       <r>   -2.0462    1.0000 </r>
       <r>   -1.9541    1.0000 </r>
       <r>   -1.7204    1.0000 </r>
       <r>   -1.6902    1.0000 </r>
       <r>   -1.6399    1.0000 </r>
       <r>   -1.5127    1.0000 </r>
       <r>   -1.4852    1.0000 </r>
       <r>   -1.4297    1.0000 </r>
       <r>   -1.3896    1.0000 </r>
       <r>   -1.3771    1.0000 </r>
       <r>   -1.3570    1.0000 </r>
       <r>   -1.3389    1.0000 </r>
       <r>   -1.3339    1.0000 </r>
       <r>   -1.2864    1.0000 </r>
       <r>   -1.2763    1.0000 </r>
       <r>   -1.2661    1.0000 </r>
       <r>   -1.2360    1.0000 </r>
       <r>   -1.2268    1.0000 </r>
       <r>   -1.1859    1.0000 </r>
       <r>   -1.1828    1.0000 </r>
       <r>   -1.1068    1.0000 </r>
       <r>   -1.0428    1.0000 </r>
       <r>   -1.0144    1.0000 </r>
       <r>   -0.8049    1.0000 </r>
       <r>   -0.6326    1.0000 </r>
       <r>   -0.3634    1.0000 </r>
       <r>   -0.0573    1.0000 </r>
       <r>    3.0663    0.0000 </r>
       <r>    3.0901    0.0000 </r>
       <r>    3.2334    0.0000 </r>
       <r>    3.4862    0.0000 </r>
       <r>    3.9128    0.0000 </r>
       <r>    4.2599    0.0000 </r>
       <r>    4.8598    0.0000 </r>
       <r>    5.2694    0.0000 </r>
       <r>    5.5791    0.0000 </r>
       <r>    5.9663    0.0000 </r>
       <r>    6.0147    0.0000 </r>
       <r>    6.0242    0.0000 </r>
       <r>    6.1926    0.0000 </r>
       <r>    6.3855    0.0000 </r>
       <r>    6.4068    0.0000 </r>
       <r>    6.5987    0.0000 </r>
       <r>    6.6278    0.0000 </r>
       <r>    6.7239    0.0000 </r>
       <r>    6.7885    0.0000 </r>
       <r>    6.8161    0.0000 </r>
       <r>    6.9627    0.0000 </r>
       <r>    6.9793    0.0000 </r>
       <r>    7.0045    0.0000 </r>
       <r>    7.2544    0.0000 </r>
      </set>
      <set comment="kpoint 5">
       <r>  -20.7522    1.0000 </r>
       <r>  -20.7521    1.0000 </r>
       <r>  -20.7485    1.0000 </r>
       <r>  -20.7485    1.0000 </r>
       <r>  -16.4424    1.0000 </r>
       <r>  -16.4424    1.0000 </r>
       <r>  -16.4231    1.0000 </r>
       <r>  -16.4231    1.0000 </r>
       <r>  -16.3946    1.0000 </r>
       <r>  -16.3946    1.0000 </r>
       <r>  -16.3555    1.0000 </r>
       <r>  -16.3555    1.0000 </r>
       <r>  -16.2927    1.0000 </r>
       <r>  -16.2927    1.0000 </r>
       <r>  -16.2915    1.0000 </r>
       <r>  -16.2915    1.0000 </r>
       <r>  -16.2910    1.0000 </r>
       <r>  -16.2910    1.0000 </r>
       <r>  -16.2905    1.0000 </r>
       <r>  -16.2905    1.0000 </r>
       <r>  -16.2843    1.0000 </r>
       <r>  -16.2843    1.0000 </r>
       <r>  -16.2831    1.0000 </r>
       <r>  -16.2831    1.0000 </r>
       <r>  -14.2659    1.0000 </r>
       <r>  -14.2659    1.0000 </r>
       <r>  -13.9911    1.0000 </r>
       <r>  -13.9911    1.0000 </r>
       <r>  -13.9808    1.0000 </r>
       <r>  -13.9808    1.0000 </r>
       <r>  -13.9715    1.0000 </r>
       <r>  -13.9715    1.0000 </r>
       <r>  -13.8332    1.0000 </r>
       <r>  -13.8332    1.0000 </r>
       <r>  -13.7233    1.0000 </r>
       <r>  -13.7233    1.0000 </r>
       <r>   -7.9186    1.0000 </r>
       <r>   -7.9186    1.0000 </r>
       <r>   -7.1900    1.0000 </r>
       <r>   -7.1900    1.0000 </r>
       <r>   -7.1759    1.0000 </r>
       <r>   -7.1758    1.0000 </r>
       <r>   -7.1560    1.0000 </r>
       <r>   -7.1560    1.0000 </r>
       <r>   -7.1437    1.0000 </r>
       <r>   -7.1437    1.0000 </r>
       <r>   -7.1364    1.0000 </r>
       <r>   -7.1364    1.0000 </r>
       <r>   -7.1273    1.0000 </r>
       <r>   -7.1272    1.0000 </r>
       <r>   -6.8757    1.0000 </r>
       <r>   -6.8757    1.0000 </r>
       <r>   -3.2019    1.0000 </r>
       <r>   -3.2019    1.0000 </r>
       <r>   -3.1861    1.0000 </r>
       <r>   -3.1861    1.0000 </r>
       <r>   -2.4506    1.0000 </r>
       <r>   -2.4506    1.0000 </r>
       <r>   -2.3098    1.0000 </r>
       <r>   -2.3098    1.0000 </r>
       <r>   -1.9848    1.0000 </r>
       <r>   -1.9848    1.0000 </r>
       <r>   -1.7831    1.0000 </r>
       <r>   -1.7831    1.0000 </r>
       <r>   -1.7508    1.0000 </r>
       <r>   -1.7508    1.0000 </r>
       <r>   -1.4677    1.0000 </r>
       <r>   -1.4677    1.0000 </r>
       <r>   -1.4617    1.0000 </r>
       <r>   -1.4617    1.0000 </r>
       <r>   -1.3440    1.0000 </r>
       <r>   -1.3440    1.0000 </r>
       <r>   -1.3190    1.0000 </r>
       <r>   -1.3190    1.0000 </r>
       <r>   -1.2917    1.0000 </r>
       <r>   -1.2917    1.0000 </r>
       <r>   -1.1721    1.0000 </r>
       <r>   -1.1721    1.0000 </r>
       <r>   -1.1620    1.0000 </r>
       <r>   -1.1620    1.0000 </r>
       <r>   -1.0769    1.0000 </r>
       <r>   -1.0769    1.0000 </r>
       <r>   -1.0769    1.0000 </r>
       <r>   -1.0769    1.0000 </r>
       <r>   -0.8143    1.0000 </r>
       <r>   -0.8143    1.0000 </r>
       <r>   -0.0011    1.0000 </r>
       <r>   -0.0011    1.0000 </r>
       <r>    2.9530    0.0000 </r>
       <r>    2.9530    0.0000 </r>
       <r>    3.1044    0.0000 </r>
       <r>    3.1044    0.0000 </r>
       <r>    4.3446    0.0000 </r>
       <r>    4.3446    0.0000 </r>
       <r>    4.9099    0.0000 </r>
       <r>    4.9099    0.0000 </r>
       <r>    5.6149    0.0000 </r>
       <r>    5.6149    0.0000 </r>
       <r>    6.0652    0.0000 </r>
       <r>    6.0652    0.0000 </r>
       <r>    6.0851    0.0000 </r>
       <r>    6.0851    0.0000 </r>
       <r>    6.3457    0.0000 </r>
       <r>    6.3457    0.0000 </r>
       <r>    6.3467    0.0000 </r>
       <r>    6.3467    0.0000 </r>
       <r>    6.7071    0.0000 </r>
       <r>    6.7071    0.0000 </r>
       <r>    6.8986    0.0000 </r>
       <r>    6.8987    0.0000 </r>
       <r>    7.0403    0.0000 </r>
       <r>    7.0701    0.0000 </r>
      </set>
      <set comment="kpoint 6">
       <r>  -20.7513    1.0000 </r>
       <r>  -20.7512    1.0000 </r>
       <r>  -20.7495    1.0000 </r>
       <r>  -20.7494    1.0000 </r>
       <r>  -16.4219    1.0000 </r>
       <r>  -16.4219    1.0000 </r>
       <r>  -16.4158    1.0000 </r>
       <r>  -16.4158    1.0000 </r>
       <r>  -16.4016    1.0000 </r>
       <r>  -16.4016    1.0000 </r>
       <r>  -16.3785    1.0000 </r>
       <r>  -16.3785    1.0000 </r>
       <r>  -16.2925    1.0000 </r>
       <r>  -16.2925    1.0000 </r>
       <r>  -16.2918    1.0000 </r>
       <r>  -16.2918    1.0000 </r>
       <r>  -16.2909    1.0000 </r>
       <r>  -16.2909    1.0000 </r>
       <r>  -16.2906    1.0000 </r>
       <r>  -16.2906    1.0000 </r>
       <r>  -16.2841    1.0000 </r>
       <r>  -16.2841    1.0000 </r>
       <r>  -16.2834    1.0000 </r>
       <r>  -16.2834    1.0000 </r>
       <r>  -14.2225    1.0000 </r>
       <r>  -14.2225    1.0000 </r>
       <r>  -14.1108    1.0000 </r>
       <r>  -14.1108    1.0000 </r>
       <r>  -13.9167    1.0000 </r>
       <r>  -13.9167    1.0000 </r>
       <r>  -13.8881    1.0000 </r>
       <r>  -13.8881    1.0000 </r>
       <r>  -13.8444    1.0000 </r>
       <r>  -13.8444    1.0000 </r>
       <r>  -13.7878    1.0000 </r>
       <r>  -13.7878    1.0000 </r>
       <r>   -7.7073    1.0000 </r>
       <r>   -7.7073    1.0000 </r>
       <r>   -7.2419    1.0000 </r>
       <r>   -7.2419    1.0000 </r>
       <r>   -7.1746    1.0000 </r>
       <r>   -7.1746    1.0000 </r>
       <r>   -7.1728    1.0000 </r>
       <r>   -7.1728    1.0000 </r>
       <r>   -7.1481    1.0000 </r>
       <r>   -7.1481    1.0000 </r>
       <r>   -7.1354    1.0000 </r>
       <r>   -7.1354    1.0000 </r>
       <r>   -7.1322    1.0000 </r>
       <r>   -7.1321    1.0000 </r>
       <r>   -7.0883    1.0000 </r>
       <r>   -7.0882    1.0000 </r>
       <r>   -2.8946    1.0000 </r>
       <r>   -2.8946    1.0000 </r>
       <r>   -2.7852    1.0000 </r>
       <r>   -2.7852    1.0000 </r>
       <r>   -2.4209    1.0000 </r>
       <r>   -2.4209    1.0000 </r>
       <r>   -2.3480    1.0000 </r>
       <r>   -2.3480    1.0000 </r>
       <r>   -2.1317    1.0000 </r>
       <r>   -2.1317    1.0000 </r>
       <r>   -2.0195    1.0000 </r>
       <r>   -2.0195    1.0000 </r>
       <r>   -1.7022    1.0000 </r>
       <r>   -1.7022    1.0000 </r>
       <r>   -1.6323    1.0000 </r>
       <r>   -1.6323    1.0000 </r>
       <r>   -1.5177    1.0000 </r>
       <r>   -1.5177    1.0000 </r>
       <r>   -1.4772    1.0000 </r>
       <r>   -1.4772    1.0000 </r>
       <r>   -1.3579    1.0000 </r>
       <r>   -1.3579    1.0000 </r>
       <r>   -1.3401    1.0000 </r>
       <r>   -1.3401    1.0000 </r>
       <r>   -1.1347    1.0000 </r>
       <r>   -1.1347    1.0000 </r>
       <r>   -1.0961    1.0000 </r>
       <r>   -1.0961    1.0000 </r>
       <r>   -1.0879    1.0000 </r>
       <r>   -1.0879    1.0000 </r>
       <r>   -1.0627    1.0000 </r>
       <r>   -1.0627    1.0000 </r>
       <r>   -0.7939    1.0000 </r>
       <r>   -0.7939    1.0000 </r>
       <r>   -0.5336    1.0000 </r>
       <r>   -0.5336    1.0000 </r>
       <r>    3.7321    0.0000 </r>
       <r>    3.7321    0.0000 </r>
       <r>    3.9195    0.0000 </r>
       <r>    3.9195    0.0000 </r>
       <r>    4.4876    0.0000 </r>
       <r>    4.4876    0.0000 </r>
       <r>    4.7551    0.0000 </r>
       <r>    4.7551    0.0000 </r>
       <r>    5.2440    0.0000 </r>
       <r>    5.2440    0.0000 </r>
       <r>    5.2624    0.0000 </r>
       <r>    5.2624    0.0000 </r>
       <r>    6.1198    0.0000 </r>
       <r>    6.1198    0.0000 </r>
       <r>    6.4082    0.0000 </r>
       <r>    6.4082    0.0000 </r>
       <r>    6.5337    0.0000 </r>
       <r>    6.5337    0.0000 </r>
       <r>    6.6582    0.0000 </r>
       <r>    6.6582    0.0000 </r>
       <r>    6.7683    0.0000 </r>
       <r>    6.7683    0.0000 </r>
       <r>    6.9383    0.0000 </r>
       <r>    6.9384    0.0000 </r>
      </set>
      <set comment="kpoint 7">
       <r>  -20.7513    1.0000 </r>
       <r>  -20.7513    1.0000 </r>
       <r>  -20.7493    1.0000 </r>
       <r>  -20.7493    1.0000 </r>
       <r>  -16.4219    1.0000 </r>
       <r>  -16.4219    1.0000 </r>
       <r>  -16.4157    1.0000 </r>
       <r>  -16.4157    1.0000 </r>
       <r>  -16.4014    1.0000 </r>
       <r>  -16.4014    1.0000 </r>
       <r>  -16.3786    1.0000 </r>
       <r>  -16.3786    1.0000 </r>
       <r>  -16.2924    1.0000 </r>
       <r>  -16.2924    1.0000 </r>
       <r>  -16.2918    1.0000 </r>
       <r>  -16.2918    1.0000 </r>
       <r>  -16.2909    1.0000 </r>
       <r>  -16.2909    1.0000 </r>
       <r>  -16.2906    1.0000 </r>
       <r>  -16.2906    1.0000 </r>
       <r>  -16.2840    1.0000 </r>
       <r>  -16.2840    1.0000 </r>
       <r>  -16.2835    1.0000 </r>
       <r>  -16.2835    1.0000 </r>
       <r>  -14.2214    1.0000 </r>
       <r>  -14.2214    1.0000 </r>
       <r>  -14.1068    1.0000 </r>
       <r>  -14.1068    1.0000 </r>
       <r>  -13.9245    1.0000 </r>
       <r>  -13.9245    1.0000 </r>
       <r>  -13.8860    1.0000 </r>
       <r>  -13.8860    1.0000 </r>
       <r>  -13.8432    1.0000 </r>
       <r>  -13.8432    1.0000 </r>
       <r>  -13.7900    1.0000 </r>
       <r>  -13.7900    1.0000 </r>
       <r>   -7.7050    1.0000 </r>
       <r>   -7.7050    1.0000 </r>
       <r>   -7.2242    1.0000 </r>
       <r>   -7.2242    1.0000 </r>
       <r>   -7.1843    1.0000 </r>
       <r>   -7.1843    1.0000 </r>
       <r>   -7.1627    1.0000 </r>
       <r>   -7.1627    1.0000 </r>
       <r>   -7.1422    1.0000 </r>
       <r>   -7.1422    1.0000 </r>
       <r>   -7.1373    1.0000 </r>
       <r>   -7.1373    1.0000 </r>
       <r>   -7.1181    1.0000 </r>
       <r>   -7.1180    1.0000 </r>
       <r>   -7.1151    1.0000 </r>
       <r>   -7.1151    1.0000 </r>
       <r>   -2.8906    1.0000 </r>
       <r>   -2.8906    1.0000 </r>
       <r>   -2.7825    1.0000 </r>
       <r>   -2.7825    1.0000 </r>
       <r>   -2.4413    1.0000 </r>
       <r>   -2.4413    1.0000 </r>
       <r>   -2.3571    1.0000 </r>
       <r>   -2.3571    1.0000 </r>
       <r>   -2.1760    1.0000 </r>
       <r>   -2.1760    1.0000 </r>
       <r>   -2.0071    1.0000 </r>
       <r>   -2.0071    1.0000 </r>
       <r>   -1.6706    1.0000 </r>
       <r>   -1.6706    1.0000 </r>
       <r>   -1.6307    1.0000 </r>
       <r>   -1.6307    1.0000 </r>
       <r>   -1.5002    1.0000 </r>
       <r>   -1.5002    1.0000 </r>
       <r>   -1.4304    1.0000 </r>
       <r>   -1.4304    1.0000 </r>
       <r>   -1.3129    1.0000 </r>
       <r>   -1.3129    1.0000 </r>
       <r>   -1.2930    1.0000 </r>
       <r>   -1.2930    1.0000 </r>
       <r>   -1.1687    1.0000 </r>
       <r>   -1.1687    1.0000 </r>
       <r>   -1.1178    1.0000 </r>
       <r>   -1.1178    1.0000 </r>
       <r>   -1.0902    1.0000 </r>
       <r>   -1.0902    1.0000 </r>
       <r>   -1.0544    1.0000 </r>
       <r>   -1.0544    1.0000 </r>
       <r>   -0.8659    1.0000 </r>
       <r>   -0.8659    1.0000 </r>
       <r>   -0.6021    1.0000 </r>
       <r>   -0.6021    1.0000 </r>
       <r>    3.8050    0.0000 </r>
       <r>    3.8050    0.0000 </r>
       <r>    3.8275    0.0000 </r>
       <r>    3.8275    0.0000 </r>
       <r>    4.4743    0.0000 </r>
       <r>    4.4744    0.0000 </r>
       <r>    4.7544    0.0000 </r>
       <r>    4.7544    0.0000 </r>
       <r>    5.2159    0.0000 </r>
       <r>    5.2159    0.0000 </r>
       <r>    5.2721    0.0000 </r>
       <r>    5.2721    0.0000 </r>
       <r>    6.0950    0.0000 </r>
       <r>    6.0950    0.0000 </r>
       <r>    6.3509    0.0000 </r>
       <r>    6.3509    0.0000 </r>
       <r>    6.4707    0.0000 </r>
       <r>    6.4707    0.0000 </r>
       <r>    6.7138    0.0000 </r>
       <r>    6.7138    0.0000 </r>
       <r>    6.8801    0.0000 </r>
       <r>    6.8801    0.0000 </r>
       <r>    7.0315    0.0000 </r>
       <r>    7.0316    0.0000 </r>
      </set>
      <set comment="kpoint 8">
       <r>  -20.7508    1.0000 </r>
       <r>  -20.7507    1.0000 </r>
       <r>  -20.7498    1.0000 </r>
       <r>  -20.7497    1.0000 </r>
       <r>  -16.4301    1.0000 </r>
       <r>  -16.4301    1.0000 </r>
       <r>  -16.4174    1.0000 </r>
       <r>  -16.4174    1.0000 </r>
       <r>  -16.3933    1.0000 </r>
       <r>  -16.3933    1.0000 </r>
       <r>  -16.3773    1.0000 </r>
       <r>  -16.3773    1.0000 </r>
       <r>  -16.2923    1.0000 </r>
       <r>  -16.2923    1.0000 </r>
       <r>  -16.2920    1.0000 </r>
       <r>  -16.2920    1.0000 </r>
       <r>  -16.2907    1.0000 </r>
       <r>  -16.2907    1.0000 </r>
       <r>  -16.2906    1.0000 </r>
       <r>  -16.2906    1.0000 </r>
       <r>  -16.2839    1.0000 </r>
       <r>  -16.2839    1.0000 </r>
       <r>  -16.2836    1.0000 </r>
       <r>  -16.2836    1.0000 </r>
       <r>  -14.1762    1.0000 </r>
       <r>  -14.1762    1.0000 </r>
       <r>  -14.0911    1.0000 </r>
       <r>  -14.0911    1.0000 </r>
       <r>  -13.9928    1.0000 </r>
       <r>  -13.9928    1.0000 </r>
       <r>  -13.9093    1.0000 </r>
       <r>  -13.9093    1.0000 </r>
       <r>  -13.8209    1.0000 </r>
       <r>  -13.8209    1.0000 </r>
       <r>  -13.7886    1.0000 </r>
       <r>  -13.7886    1.0000 </r>
       <r>   -7.5742    1.0000 </r>
       <r>   -7.5742    1.0000 </r>
       <r>   -7.3308    1.0000 </r>
       <r>   -7.3308    1.0000 </r>
       <r>   -7.1711    1.0000 </r>
       <r>   -7.1711    1.0000 </r>
       <r>   -7.1552    1.0000 </r>
       <r>   -7.1552    1.0000 </r>
       <r>   -7.1404    1.0000 </r>
       <r>   -7.1404    1.0000 </r>
       <r>   -7.1353    1.0000 </r>
       <r>   -7.1353    1.0000 </r>
       <r>   -7.1301    1.0000 </r>
       <r>   -7.1301    1.0000 </r>
       <r>   -7.1079    1.0000 </r>
       <r>   -7.1079    1.0000 </r>
       <r>   -3.1144    1.0000 </r>
       <r>   -3.1144    1.0000 </r>
       <r>   -2.7592    1.0000 </r>
       <r>   -2.7592    1.0000 </r>
       <r>   -2.4948    1.0000 </r>
       <r>   -2.4948    1.0000 </r>
       <r>   -2.3662    1.0000 </r>
       <r>   -2.3662    1.0000 </r>
       <r>   -2.1131    1.0000 </r>
       <r>   -2.1131    1.0000 </r>
       <r>   -1.9750    1.0000 </r>
       <r>   -1.9750    1.0000 </r>
       <r>   -1.6973    1.0000 </r>
       <r>   -1.6973    1.0000 </r>
       <r>   -1.6207    1.0000 </r>
       <r>   -1.6207    1.0000 </r>
       <r>   -1.4706    1.0000 </r>
       <r>   -1.4706    1.0000 </r>
       <r>   -1.3936    1.0000 </r>
       <r>   -1.3936    1.0000 </r>
       <r>   -1.3293    1.0000 </r>
       <r>   -1.3293    1.0000 </r>
       <r>   -1.2543    1.0000 </r>
       <r>   -1.2543    1.0000 </r>
       <r>   -1.2187    1.0000 </r>
       <r>   -1.2187    1.0000 </r>
       <r>   -1.1505    1.0000 </r>
       <r>   -1.1505    1.0000 </r>
       <r>   -1.0971    1.0000 </r>
       <r>   -1.0971    1.0000 </r>
       <r>   -1.0460    1.0000 </r>
       <r>   -1.0460    1.0000 </r>
       <r>   -0.7781    1.0000 </r>
       <r>   -0.7781    1.0000 </r>
       <r>   -0.5138    1.0000 </r>
       <r>   -0.5138    1.0000 </r>
       <r>    3.2787    0.0000 </r>
       <r>    3.2787    0.0000 </r>
       <r>    4.0632    0.0000 </r>
       <r>    4.0632    0.0000 </r>
       <r>    4.5527    0.0000 </r>
       <r>    4.5527    0.0000 </r>
       <r>    4.6797    0.0000 </r>
       <r>    4.6797    0.0000 </r>
       <r>    5.0868    0.0000 </r>
       <r>    5.0868    0.0000 </r>
       <r>    5.8046    0.0000 </r>
       <r>    5.8046    0.0000 </r>
       <r>    6.3385    0.0000 </r>
       <r>    6.3385    0.0000 </r>
       <r>    6.4747    0.0000 </r>
       <r>    6.4747    0.0000 </r>
       <r>    6.6445    0.0000 </r>
       <r>    6.6445    0.0000 </r>
       <r>    6.8059    0.0000 </r>
       <r>    6.8059    0.0000 </r>
       <r>    6.8775    0.0000 </r>
       <r>    6.8775    0.0000 </r>
       <r>    6.9936    0.0000 </r>
       <r>    6.9936    0.0000 </r>
      </set>
     </set>
    </set>
   </array>
  </eigenvalues>
  <separator name="orbital magnetization" >
   <v name="MAGDIPOLOUT">      0.00000000      0.00000000      0.00000000</v>
  </separator>
  <dos>
   <i name="efermi">      0.56761495 </i>
   <total>
    <array>
     <dimension dim="1">gridpoints</dimension>
     <dimension dim="2">spin</dimension>
     <field>energy</field>
     <field>total</field>
     <field>integrated</field>
     <set>
      <set comment="spin 1">
       <r>   -22.1534     0.0000     0.0000 </r>
       <r>   -22.0507     0.0000     0.0000 </r>
       <r>   -21.9480     0.0000     0.0000 </r>
       <r>   -21.8453     0.0000     0.0000 </r>
       <r>   -21.7426     0.0000     0.0000 </r>
       <r>   -21.6399     0.0000     0.0000 </r>
       <r>   -21.5372     0.0000     0.0000 </r>
       <r>   -21.4345     0.0000     0.0000 </r>
       <r>   -21.3318     0.0000     0.0000 </r>
       <r>   -21.2291     0.0000     0.0000 </r>
       <r>   -21.1264     0.0000     0.0000 </r>
       <r>   -21.0238     0.0000     0.0000 </r>
       <r>   -20.9211     0.0000     0.0000 </r>
       <r>   -20.8184     0.0000     0.0000 </r>
       <r>   -20.7157    77.9014     8.0000 </r>
       <r>   -20.6130     0.0000     8.0000 </r>
       <r>   -20.5103     0.0000     8.0000 </r>
       <r>   -20.4076     0.0000     8.0000 </r>
       <r>   -20.3049     0.0000     8.0000 </r>
       <r>   -20.2022     0.0000     8.0000 </r>
       <r>   -20.0995     0.0000     8.0000 </r>
       <r>   -19.9968     0.0000     8.0000 </r>
       <r>   -19.8941     0.0000     8.0000 </r>
       <r>   -19.7914     0.0000     8.0000 </r>
       <r>   -19.6887     0.0000     8.0000 </r>
       <r>   -19.5860     0.0000     8.0000 </r>
       <r>   -19.4833     0.0000     8.0000 </r>
       <r>   -19.3807     0.0000     8.0000 </r>
       <r>   -19.2780     0.0000     8.0000 </r>
       <r>   -19.1753     0.0000     8.0000 </r>
       <r>   -19.0726     0.0000     8.0000 </r>
       <r>   -18.9699     0.0000     8.0000 </r>
       <r>   -18.8672     0.0000     8.0000 </r>
       <r>   -18.7645     0.0000     8.0000 </r>
       <r>   -18.6618     0.0000     8.0000 </r>
       <r>   -18.5591     0.0000     8.0000 </r>
       <r>   -18.4564     0.0000     8.0000 </r>
       <r>   -18.3537     0.0000     8.0000 </r>
       <r>   -18.2510     0.0000     8.0000 </r>
       <r>   -18.1483     0.0000     8.0000 </r>
       <r>   -18.0456     0.0000     8.0000 </r>
       <r>   -17.9429     0.0000     8.0000 </r>
       <r>   -17.8402     0.0000     8.0000 </r>
       <r>   -17.7376     0.0000     8.0000 </r>
       <r>   -17.6349     0.0000     8.0000 </r>
       <r>   -17.5322     0.0000     8.0000 </r>
       <r>   -17.4295     0.0000     8.0000 </r>
       <r>   -17.3268     0.0000     8.0000 </r>
       <r>   -17.2241     0.0000     8.0000 </r>
       <r>   -17.1214     0.0000     8.0000 </r>
       <r>   -17.0187     0.0000     8.0000 </r>
       <r>   -16.9160     0.0000     8.0000 </r>
       <r>   -16.8133     0.0000     8.0000 </r>
       <r>   -16.7106     0.0000     8.0000 </r>
       <r>   -16.6079     0.0000     8.0000 </r>
       <r>   -16.5052     0.0000     8.0000 </r>
       <r>   -16.4025    82.9081    16.5142 </r>
       <r>   -16.2998    63.6609    25.9828 </r>
       <r>   -16.1971     0.0000    48.0000 </r>
       <r>   -16.0945     0.0000    48.0000 </r>
       <r>   -15.9918     0.0000    48.0000 </r>
       <r>   -15.8891     0.0000    48.0000 </r>
       <r>   -15.7864     0.0000    48.0000 </r>
       <r>   -15.6837     0.0000    48.0000 </r>
       <r>   -15.5810     0.0000    48.0000 </r>
       <r>   -15.4783     0.0000    48.0000 </r>
       <r>   -15.3756     0.0000    48.0000 </r>
       <r>   -15.2729     0.0000    48.0000 </r>
       <r>   -15.1702     0.0000    48.0000 </r>
       <r>   -15.0675     0.0000    48.0000 </r>
       <r>   -14.9648     0.0000    48.0000 </r>
       <r>   -14.8621     0.0000    48.0000 </r>
       <r>   -14.7594     0.0000    48.0000 </r>
       <r>   -14.6567     0.0000    48.0000 </r>
       <r>   -14.5540     0.0000    48.0000 </r>
       <r>   -14.4514     0.0000    48.0000 </r>
       <r>   -14.3487     0.0002    48.0000 </r>
       <r>   -14.2460     7.5739    48.7778 </r>
       <r>   -14.1433    23.2904    51.1702 </r>
       <r>   -14.0406    26.0192    54.6720 </r>
       <r>   -13.9379    51.0873    60.3575 </r>
       <r>   -13.8352    36.6204    65.8719 </r>
       <r>   -13.7325    35.3087    71.0704 </r>
       <r>   -13.6298     0.0000    72.0000 </r>
       <r>   -13.5271     0.0000    72.0000 </r>
       <r>   -13.4244     0.0000    72.0000 </r>
       <r>   -13.3217     0.0000    72.0000 </r>
       <r>   -13.2190     0.0000    72.0000 </r>
       <r>   -13.1163     0.0000    72.0000 </r>
       <r>   -13.0136     0.0000    72.0000 </r>
       <r>   -12.9109     0.0000    72.0000 </r>
       <r>   -12.8083     0.0000    72.0000 </r>
       <r>   -12.7056     0.0000    72.0000 </r>
       <r>   -12.6029     0.0000    72.0000 </r>
       <r>   -12.5002     0.0000    72.0000 </r>
       <r>   -12.3975     0.0000    72.0000 </r>
       <r>   -12.2948     0.0000    72.0000 </r>
       <r>   -12.1921     0.0000    72.0000 </r>
       <r>   -12.0894     0.0000    72.0000 </r>
       <r>   -11.9867     0.0000    72.0000 </r>
       <r>   -11.8840     0.0000    72.0000 </r>
       <r>   -11.7813     0.0000    72.0000 </r>
       <r>   -11.6786     0.0000    72.0000 </r>
       <r>   -11.5759     0.0000    72.0000 </r>
       <r>   -11.4732     0.0000    72.0000 </r>
       <r>   -11.3705     0.0000    72.0000 </r>
       <r>   -11.2678     0.0000    72.0000 </r>
       <r>   -11.1652     0.0000    72.0000 </r>
       <r>   -11.0625     0.0000    72.0000 </r>
       <r>   -10.9598     0.0000    72.0000 </r>
       <r>   -10.8571     0.0000    72.0000 </r>
       <r>   -10.7544     0.0000    72.0000 </r>
       <r>   -10.6517     0.0000    72.0000 </r>
       <r>   -10.5490     0.0000    72.0000 </r>
       <r>   -10.4463     0.0000    72.0000 </r>
       <r>   -10.3436     0.0000    72.0000 </r>
       <r>   -10.2409     0.0000    72.0000 </r>
       <r>   -10.1382     0.0000    72.0000 </r>
       <r>   -10.0355     0.0000    72.0000 </r>
       <r>    -9.9328     0.0000    72.0000 </r>
       <r>    -9.8301     0.0000    72.0000 </r>
       <r>    -9.7274     0.0000    72.0000 </r>
       <r>    -9.6247     0.0000    72.0000 </r>
       <r>    -9.5220     0.0000    72.0000 </r>
       <r>    -9.4194     0.0000    72.0000 </r>
       <r>    -9.3167     0.0000    72.0000 </r>
       <r>    -9.2140     0.0000    72.0000 </r>
       <r>    -9.1113     0.0000    72.0000 </r>
       <r>    -9.0086     0.0000    72.0000 </r>
       <r>    -8.9059     0.0000    72.0000 </r>
       <r>    -8.8032     0.0000    72.0000 </r>
       <r>    -8.7005     0.0000    72.0000 </r>
       <r>    -8.5978     0.0000    72.0000 </r>
       <r>    -8.4951     0.0000    72.0000 </r>
       <r>    -8.3924     0.0000    72.0000 </r>
       <r>    -8.2897     0.0000    72.0000 </r>
       <r>    -8.1870     0.0000    72.0000 </r>
       <r>    -8.0843     1.0820    72.1111 </r>
       <r>    -7.9816     0.0000    72.1111 </r>
       <r>    -7.8789     6.4918    72.7778 </r>
       <r>    -7.7763     4.3279    73.2222 </r>
       <r>    -7.6736     8.6559    74.1111 </r>
       <r>    -7.5709     8.8558    75.0206 </r>
       <r>    -7.4682     0.6300    75.6203 </r>
       <r>    -7.3655     4.3279    76.4444 </r>
       <r>    -7.2628    12.9905    77.7785 </r>
       <r>    -7.1601    70.8021    85.4932 </r>
       <r>    -7.0574    98.4497   102.7778 </r>
       <r>    -6.9547     4.3199   103.2214 </r>
       <r>    -6.8520     5.8682   103.8248 </r>
       <r>    -6.7493     0.0000   103.8889 </r>
       <r>    -6.6466     0.0000   103.8889 </r>
       <r>    -6.5439     0.0000   103.8889 </r>
       <r>    -6.4412     1.0819   104.0000 </r>
       <r>    -6.3385     0.0000   104.0000 </r>
       <r>    -6.2358     0.0000   104.0000 </r>
       <r>    -6.1332     0.0000   104.0000 </r>
       <r>    -6.0305     0.0000   104.0000 </r>
       <r>    -5.9278     0.0000   104.0000 </r>
       <r>    -5.8251     0.0000   104.0000 </r>
       <r>    -5.7224     0.0000   104.0000 </r>
       <r>    -5.6197     0.0000   104.0000 </r>
       <r>    -5.5170     0.0000   104.0000 </r>
       <r>    -5.4143     0.0000   104.0000 </r>
       <r>    -5.3116     0.0000   104.0000 </r>
       <r>    -5.2089     0.0000   104.0000 </r>
       <r>    -5.1062     0.0000   104.0000 </r>
       <r>    -5.0035     0.0000   104.0000 </r>
       <r>    -4.9008     0.0000   104.0000 </r>
       <r>    -4.7981     0.0000   104.0000 </r>
       <r>    -4.6954     0.0000   104.0000 </r>
       <r>    -4.5927     0.0000   104.0000 </r>
       <r>    -4.4901     0.0000   104.0000 </r>
       <r>    -4.3874     0.0000   104.0000 </r>
       <r>    -4.2847     0.0000   104.0000 </r>
       <r>    -4.1820     0.0000   104.0000 </r>
       <r>    -4.0793     0.0000   104.0000 </r>
       <r>    -3.9766     0.0000   104.0000 </r>
       <r>    -3.8739     0.0000   104.0000 </r>
       <r>    -3.7712     0.0000   104.0000 </r>
       <r>    -3.6685     0.0000   104.0000 </r>
       <r>    -3.5658     0.0000   104.0000 </r>
       <r>    -3.4631     0.0000   104.0000 </r>
       <r>    -3.3604     0.0000   104.0000 </r>
       <r>    -3.2577     1.4252   104.1464 </r>
       <r>    -3.1550    18.5145   106.5680 </r>
       <r>    -3.0523    10.8292   108.2232 </r>
       <r>    -2.9496     2.5588   108.9294 </r>
       <r>    -2.8470     8.6639   110.0008 </r>
       <r>    -2.7443    21.7434   112.6774 </r>
       <r>    -2.6416     9.8198   113.8973 </r>
       <r>    -2.5389     0.0000   114.0000 </r>
       <r>    -2.4362    14.1561   115.4537 </r>
       <r>    -2.3335    17.2230   117.7687 </r>
       <r>    -2.2308     4.3382   118.2234 </r>
       <r>    -2.1281    11.8205   119.6583 </r>
       <r>    -2.0254    22.4971   123.0881 </r>
       <r>    -1.9227    23.9532   126.3487 </r>
       <r>    -1.8200     6.4768   127.2207 </r>
       <r>    -1.7173    12.7299   128.5295 </r>
       <r>    -1.6146    35.1575   133.6105 </r>
       <r>    -1.5119     8.2644   135.1821 </r>
       <r>    -1.4092    38.4735   139.9510 </r>
       <r>    -1.3065    62.8008   148.3381 </r>
       <r>    -1.2039    49.9246   155.0159 </r>
       <r>    -1.1012    48.0024   160.9296 </r>
       <r>    -0.9985    36.3899   167.4038 </r>
       <r>    -0.8958     1.0928   168.0011 </r>
       <r>    -0.7931    14.0430   169.6644 </r>
       <r>    -0.6904     0.2103   171.0216 </r>
       <r>    -0.5877    11.8118   172.4352 </r>
       <r>    -0.4850    17.2839   174.2194 </r>
       <r>    -0.3823     0.0165   174.2239 </r>
       <r>    -0.2796     0.0000   174.6667 </r>
       <r>    -0.1769     0.0000   174.6667 </r>
       <r>    -0.0742     3.5130   175.0274 </r>
       <r>     0.0285     2.1639   175.8889 </r>
       <r>     0.1312     0.0000   175.8889 </r>
       <r>     0.2339     0.0000   175.8889 </r>
       <r>     0.3366     0.0000   175.8889 </r>
       <r>     0.4392     0.0000   175.8889 </r>
       <r>     0.5419     1.0820   176.0000 </r>
       <r>     0.6446     0.0000   176.0000 </r>
       <r>     0.7473     0.0000   176.0000 </r>
       <r>     0.8500     0.0000   176.0000 </r>
       <r>     0.9527     0.0000   176.0000 </r>
       <r>     1.0554     0.0000   176.0000 </r>
       <r>     1.1581     0.0000   176.0000 </r>
       <r>     1.2608     0.0000   176.0000 </r>
       <r>     1.3635     0.0000   176.0000 </r>
       <r>     1.4662     0.0000   176.0000 </r>
       <r>     1.5689     0.0000   176.0000 </r>
       <r>     1.6716     0.0000   176.0000 </r>
       <r>     1.7743     0.0000   176.0000 </r>
       <r>     1.8770     0.0000   176.0000 </r>
       <r>     1.9797     0.0000   176.0000 </r>
       <r>     2.0823     0.0000   176.0000 </r>
       <r>     2.1850     0.0000   176.0000 </r>
       <r>     2.2877     0.0000   176.0000 </r>
       <r>     2.3904     0.0000   176.0000 </r>
       <r>     2.4931     0.0000   176.0000 </r>
       <r>     2.5958     0.0000   176.0000 </r>
       <r>     2.6985     0.0000   176.0000 </r>
       <r>     2.8012     1.0848   176.1114 </r>
       <r>     2.9039     1.0561   176.3307 </r>
       <r>     3.0066     6.4734   176.9981 </r>
       <r>     3.1093    10.2793   178.0556 </r>
       <r>     3.2120     0.0054   178.2228 </r>
       <r>     3.3147     9.8923   179.6825 </r>
       <r>     3.4174     0.0000   180.1111 </r>
       <r>     3.5201     4.3279   180.5556 </r>
       <r>     3.6228     3.4371   180.9085 </r>
       <r>     3.7254     2.9199   181.4110 </r>
       <r>     3.8281     8.8181   182.6833 </r>
       <r>     3.9308    10.4701   183.9641 </r>
       <r>     4.0335     2.1655   184.2224 </r>
       <r>     4.1362    10.1917   185.4911 </r>
       <r>     4.2389     0.0067   185.5562 </r>
       <r>     4.3416     0.7304   186.0750 </r>
       <r>     4.4443     0.0000   186.2222 </r>
       <r>     4.5470    10.4770   187.2982 </r>
       <r>     4.6497     0.0001   188.0000 </r>
       <r>     4.7524    11.8430   189.2162 </r>
       <r>     4.8551     1.0851   189.8892 </r>
       <r>     4.9578     3.2453   190.5555 </r>
       <r>     5.0605     1.2762   190.6866 </r>
       <r>     5.1632    15.1336   192.3320 </r>
       <r>     5.2659    15.9393   193.9702 </r>
       <r>     5.3685     2.1639   195.0000 </r>
       <r>     5.4712     4.3279   195.4444 </r>
       <r>     5.5739     1.0115   195.5483 </r>
       <r>     5.6766     2.1639   196.1111 </r>
       <r>     5.7793     3.2110   196.4409 </r>
       <r>     5.8820    16.2027   198.1085 </r>
       <r>     5.9847     5.3900   198.6646 </r>
       <r>     6.0874    14.6071   200.1667 </r>
       <r>     6.1901     9.2932   201.6210 </r>
       <r>     6.2928     5.3899   202.8868 </r>
       <r>     6.3955    24.2002   205.3741 </r>
       <r>     6.4982    17.3323   208.2244 </r>
       <r>     6.6009    15.4308   210.0291 </r>
       <r>     6.7036    20.9623   212.4861 </r>
       <r>     6.8063    16.7176   215.3835 </r>
       <r>     6.9090    19.8699   218.2627 </r>
       <r>     7.0117    33.1686   221.8507 </r>
       <r>     7.1143     7.5061   223.5486 </r>
       <r>     7.2170     0.0000   223.5556 </r>
       <r>     7.3197     4.3279   224.0000 </r>
       <r>     7.4224     0.0000   224.0000 </r>
       <r>     7.5251     0.0000   224.0000 </r>
       <r>     7.6278     0.0000   224.0000 </r>
       <r>     7.7305     0.0000   224.0000 </r>
       <r>     7.8332     0.0000   224.0000 </r>
       <r>     7.9359     0.0000   224.0000 </r>
       <r>     8.0386     0.0000   224.0000 </r>
       <r>     8.1413     0.0000   224.0000 </r>
       <r>     8.2440     0.0000   224.0000 </r>
       <r>     8.3467     0.0000   224.0000 </r>
       <r>     8.4494     0.0000   224.0000 </r>
       <r>     8.5521     0.0000   224.0000 </r>
       <r>     8.6548     0.0000   224.0000 </r>
      </set>
     </set>
    </array>
   </total>
   <partial>
    <array>
     <dimension dim="1">gridpoints</dimension>
     <dimension dim="2">spin</dimension>
     <dimension dim="3">ion</dimension>
     <field>energy</field>
     <field>  s  </field>
     <field>  p  </field>
     <field>  d  </field>
     <set>
      <set comment="ion 1">
       <set comment="spin 1">
        <r>   -22.1534     0.0000     0.0000     0.0000 </r>
[...]
        <r>  0.0000  0.0004  0.0003 </r>
        <r>  0.0030  0.1598  0.0017 </r>
        <r>  0.0002  0.0117  0.0003 </r>
        <r>  0.0028  0.1675  0.0017 </r>
        <r>  0.0003  0.0124  0.0003 </r>
        <r>  0.0006  0.0120  0.0007 </r>
        <r>  0.0000  0.0007  0.0000 </r>
        <r>  0.0007  0.0124  0.0008 </r>
        <r>  0.0001  0.0011  0.0001 </r>
        <r>  0.0001  0.0029  0.0016 </r>
        <r>  0.0004  0.0055  0.0007 </r>
        <r>  0.0003  0.0047  0.0019 </r>
        <r>  0.0008  0.0069  0.0008 </r>
        <r>  0.0133  0.0346  0.0072 </r>
        <r>  0.0010  0.0033  0.0004 </r>
        <r>  0.0132  0.0332  0.0076 </r>
        <r>  0.0008  0.0019  0.0008 </r>
       </set>
       <set comment="band 93">
        <r>  0.0005  0.0002  0.0006 </r>
        <r>  0.0000  0.0000  0.0006 </r>
        <r>  0.0000  0.0007  0.0015 </r>
        <r>  0.0000  0.0001  0.0003 </r>
        <r>  0.0037  0.0597  0.0019 </r>
        <r>  0.0017  0.1268  0.0010 </r>
        <r>  0.0030  0.0455  0.0014 </r>
        <r>  0.0013  0.0856  0.0010 </r>
        <r>  0.0000  0.0012  0.0013 </r>
        <r>  0.0000  0.0020  0.0025 </r>
        <r>  0.0000  0.0009  0.0013 </r>
        <r>  0.0000  0.0017  0.0026 </r>
        <r>  0.0115  0.0046  0.0051 </r>
        <r>  0.0006  0.0685  0.0006 </r>
        <r>  0.0092  0.0035  0.0038 </r>
        <r>  0.0004  0.0522  0.0007 </r>
        <r>  0.0002  0.0055  0.0008 </r>
        <r>  0.0006  0.0086  0.0014 </r>
        <r>  0.0006  0.0019  0.0007 </r>
        <r>  0.0010  0.0050  0.0014 </r>
       </set>
       <set comment="band 94">
        <r>  0.0000  0.0000  0.0006 </r>
        <r>  0.0005  0.0002  0.0006 </r>
        <r>  0.0000  0.0001  0.0003 </r>
        <r>  0.0000  0.0007  0.0015 </r>
        <r>  0.0017  0.1268  0.0010 </r>
        <r>  0.0037  0.0597  0.0019 </r>
        <r>  0.0013  0.0856  0.0010 </r>
        <r>  0.0030  0.0455  0.0014 </r>
        <r>  0.0000  0.0017  0.0026 </r>
        <r>  0.0000  0.0009  0.0013 </r>
        <r>  0.0000  0.0020  0.0025 </r>
        <r>  0.0000  0.0012  0.0013 </r>
        <r>  0.0006  0.0685  0.0006 </r>
        <r>  0.0115  0.0046  0.0051 </r>
        <r>  0.0004  0.0522  0.0007 </r>
        <r>  0.0092  0.0035  0.0038 </r>
        <r>  0.0010  0.0050  0.0014 </r>
        <r>  0.0006  0.0019  0.0007 </r>
        <r>  0.0006  0.0086  0.0014 </r>
        <r>  0.0002  0.0055  0.0008 </r>
       </set>
       <set comment="band 95">
        <r>  0.0000  0.0005  0.0005 </r>
        <r>  0.0001  0.0007  0.0007 </r>
        <r>  0.0001  0.0002  0.0005 </r>
        <r>  0.0002  0.0003  0.0004 </r>
        <r>  0.0032  0.0111  0.0018 </r>
        <r>  0.0014  0.1149  0.0004 </r>
        <r>  0.0059  0.0120  0.0025 </r>
        <r>  0.0002  0.1828  0.0004 </r>
        <r>  0.0000  0.0016  0.0003 </r>
        <r>  0.0005  0.0098  0.0013 </r>
        <r>  0.0000  0.0005  0.0003 </r>
        <r>  0.0005  0.0087  0.0013 </r>
        <r>  0.0031  0.0299  0.0017 </r>
        <r>  0.0056  0.0166  0.0026 </r>
        <r>  0.0044  0.0440  0.0021 </r>
        <r>  0.0080  0.0244  0.0037 </r>
        <r>  0.0000  0.0009  0.0005 </r>
        <r>  0.0007  0.0115  0.0038 </r>
        <r>  0.0001  0.0006  0.0003 </r>
        <r>  0.0008  0.0112  0.0036 </r>
       </set>
       <set comment="band 96">
        <r>  0.0001  0.0007  0.0007 </r>
        <r>  0.0000  0.0005  0.0005 </r>
        <r>  0.0002  0.0003  0.0004 </r>
        <r>  0.0001  0.0002  0.0005 </r>
        <r>  0.0014  0.1149  0.0004 </r>
        <r>  0.0032  0.0111  0.0018 </r>
        <r>  0.0002  0.1828  0.0004 </r>
        <r>  0.0059  0.0120  0.0025 </r>
        <r>  0.0005  0.0087  0.0013 </r>
        <r>  0.0000  0.0005  0.0003 </r>
        <r>  0.0005  0.0098  0.0013 </r>
        <r>  0.0000  0.0016  0.0003 </r>
        <r>  0.0056  0.0166  0.0026 </r>
        <r>  0.0031  0.0299  0.0017 </r>
        <r>  0.0080  0.0244  0.0037 </r>
        <r>  0.0044  0.0440  0.0021 </r>
        <r>  0.0008  0.0112  0.0036 </r>
        <r>  0.0001  0.0006  0.0003 </r>
        <r>  0.0007  0.0115  0.0038 </r>
        <r>  0.0000  0.0009  0.0005 </r>
       </set>
       <set comment="band 97">
        <r>  0.0001  0.0003  0.0020 </r>
        <r>  0.0001  0.0003  0.0018 </r>
        <r>  0.0002  0.0002  0.0012 </r>
        <r>  0.0002  0.0003  0.0012 </r>
        <r>  0.0012  0.0004  0.0008 </r>
        <r>  0.0034  0.1670  0.0013 </r>
        <r>  0.0000  0.0021  0.0004 </r>
        <r>  0.0042  0.1345  0.0013 </r>
        <r>  0.0000  0.0002  0.0001 </r>
        <r>  0.0001  0.0026  0.0037 </r>
        <r>  0.0000  0.0002  0.0001 </r>
        <r>  0.0001  0.0026  0.0037 </r>
        <r>  0.0015  0.0070  0.0024 </r>
        <r>  0.0017  0.0067  0.0023 </r>
        <r>  0.0004  0.0036  0.0019 </r>
        <r>  0.0004  0.0038  0.0018 </r>
        <r>  0.0001  0.0004  0.0002 </r>
        <r>  0.0065  0.0744  0.0027 </r>
        <r>  0.0001  0.0005  0.0002 </r>
        <r>  0.0064  0.0745  0.0028 </r>
       </set>
       <set comment="band 98">
        <r>  0.0001  0.0003  0.0018 </r>
        <r>  0.0001  0.0003  0.0020 </r>
        <r>  0.0002  0.0003  0.0012 </r>
        <r>  0.0002  0.0002  0.0012 </r>
        <r>  0.0034  0.1670  0.0013 </r>
        <r>  0.0012  0.0004  0.0008 </r>
        <r>  0.0042  0.1345  0.0013 </r>
        <r>  0.0000  0.0021  0.0004 </r>
        <r>  0.0001  0.0026  0.0037 </r>
        <r>  0.0000  0.0002  0.0001 </r>
        <r>  0.0001  0.0026  0.0037 </r>
        <r>  0.0000  0.0002  0.0001 </r>
        <r>  0.0017  0.0067  0.0023 </r>
        <r>  0.0015  0.0070  0.0024 </r>
        <r>  0.0004  0.0038  0.0018 </r>
        <r>  0.0004  0.0036  0.0019 </r>
        <r>  0.0064  0.0745  0.0028 </r>
        <r>  0.0001  0.0005  0.0002 </r>
        <r>  0.0065  0.0744  0.0027 </r>
        <r>  0.0001  0.0004  0.0002 </r>
       </set>
       <set comment="band 99">
        <r>  0.0000  0.0001  0.0017 </r>
        <r>  0.0000  0.0002  0.0017 </r>
        <r>  0.0000  0.0001  0.0026 </r>
        <r>  0.0000  0.0001  0.0017 </r>
        <r>  0.0000  0.0035  0.0006 </r>
        <r>  0.0000  0.1448  0.0003 </r>
        <r>  0.0001  0.0036  0.0008 </r>
        <r>  0.0000  0.1563  0.0004 </r>
        <r>  0.0001  0.0025  0.0003 </r>
        <r>  0.0000  0.0988  0.0022 </r>
        <r>  0.0000  0.0021  0.0005 </r>
        <r>  0.0000  0.0984  0.0024 </r>
        <r>  0.0000  0.0015  0.0029 </r>
        <r>  0.0000  0.0026  0.0016 </r>
        <r>  0.0002  0.0014  0.0031 </r>
        <r>  0.0004  0.0016  0.0019 </r>
        <r>  0.0000  0.0003  0.0002 </r>
        <r>  0.0000  0.0016  0.0049 </r>
        <r>  0.0000  0.0003  0.0001 </r>
        <r>  0.0000  0.0017  0.0048 </r>
       </set>
       <set comment="band 100">
        <r>  0.0000  0.0002  0.0017 </r>
        <r>  0.0000  0.0001  0.0017 </r>
        <r>  0.0000  0.0001  0.0017 </r>
        <r>  0.0000  0.0001  0.0026 </r>
        <r>  0.0000  0.1448  0.0003 </r>
        <r>  0.0000  0.0035  0.0006 </r>
        <r>  0.0000  0.1563  0.0004 </r>
        <r>  0.0001  0.0036  0.0008 </r>
        <r>  0.0000  0.0984  0.0024 </r>
        <r>  0.0000  0.0021  0.0005 </r>
        <r>  0.0000  0.0988  0.0022 </r>
        <r>  0.0001  0.0025  0.0003 </r>
        <r>  0.0000  0.0026  0.0016 </r>
        <r>  0.0000  0.0015  0.0029 </r>
        <r>  0.0004  0.0016  0.0019 </r>
        <r>  0.0002  0.0014  0.0031 </r>
        <r>  0.0000  0.0017  0.0048 </r>
        <r>  0.0000  0.0003  0.0001 </r>
        <r>  0.0000  0.0016  0.0049 </r>
        <r>  0.0000  0.0003  0.0002 </r>
       </set>
       <set comment="band 101">
        <r>  0.0000  0.0013  0.0159 </r>
        <r>  0.0124  0.0040  0.0063 </r>
        <r>  0.0000  0.0018  0.0123 </r>
        <r>  0.0124  0.0041  0.0067 </r>
        <r>  0.0002  0.0036  0.0002 </r>
        <r>  0.0002  0.0036  0.0002 </r>
        <r>  0.0003  0.0095  0.0003 </r>
        <r>  0.0003  0.0097  0.0003 </r>
        <r>  0.0031  0.0018  0.0020 </r>
        <r>  0.0034  0.0019  0.0020 </r>
        <r>  0.0056  0.0037  0.0024 </r>
        <r>  0.0059  0.0038  0.0024 </r>
        <r>  0.0000  0.0049  0.0002 </r>
        <r>  0.0025  0.0071  0.0026 </r>
        <r>  0.0000  0.0068  0.0004 </r>
        <r>  0.0021  0.0053  0.0030 </r>
        <r>  0.0023  0.0034  0.0021 </r>
        <r>  0.0024  0.0034  0.0022 </r>
        <r>  0.0008  0.0049  0.0010 </r>
        <r>  0.0009  0.0048  0.0010 </r>
       </set>
       <set comment="band 102">
        <r>  0.0124  0.0040  0.0063 </r>
        <r>  0.0000  0.0013  0.0159 </r>
        <r>  0.0124  0.0041  0.0067 </r>
        <r>  0.0000  0.0018  0.0123 </r>
        <r>  0.0002  0.0036  0.0002 </r>
        <r>  0.0002  0.0036  0.0002 </r>
        <r>  0.0003  0.0097  0.0003 </r>
        <r>  0.0003  0.0095  0.0003 </r>
        <r>  0.0059  0.0038  0.0024 </r>
        <r>  0.0056  0.0037  0.0024 </r>
        <r>  0.0034  0.0019  0.0020 </r>
        <r>  0.0031  0.0018  0.0020 </r>
        <r>  0.0025  0.0071  0.0026 </r>
        <r>  0.0000  0.0049  0.0002 </r>
        <r>  0.0021  0.0053  0.0030 </r>
        <r>  0.0000  0.0068  0.0004 </r>
        <r>  0.0009  0.0048  0.0010 </r>
        <r>  0.0008  0.0049  0.0010 </r>
        <r>  0.0024  0.0034  0.0022 </r>
        <r>  0.0023  0.0034  0.0021 </r>
       </set>
       <set comment="band 103">
        <r>  0.0013  0.0014  0.0598 </r>
        <r>  0.0000  0.0005  0.0025 </r>
        <r>  0.0054  0.0018  0.0359 </r>
        <r>  0.0000  0.0003  0.0049 </r>
        <r>  0.0000  0.0108  0.0004 </r>
        <r>  0.0000  0.0089  0.0004 </r>
        <r>  0.0000  0.0024  0.0004 </r>
        <r>  0.0000  0.0025  0.0005 </r>
        <r>  0.0005  0.0032  0.0020 </r>
        <r>  0.0004  0.0031  0.0020 </r>
        <r>  0.0006  0.0012  0.0013 </r>
        <r>  0.0005  0.0012  0.0013 </r>
        <r>  0.0021  0.0061  0.0070 </r>
        <r>  0.0000  0.0032  0.0007 </r>
        <r>  0.0001  0.0125  0.0064 </r>
        <r>  0.0000  0.0008  0.0001 </r>
        <r>  0.0007  0.0048  0.0013 </r>
        <r>  0.0006  0.0048  0.0014 </r>
        <r>  0.0003  0.0035  0.0021 </r>
        <r>  0.0002  0.0036  0.0022 </r>
       </set>
       <set comment="band 104">
        <r>  0.0000  0.0005  0.0025 </r>
        <r>  0.0013  0.0014  0.0598 </r>
        <r>  0.0000  0.0003  0.0049 </r>
        <r>  0.0054  0.0018  0.0359 </r>
        <r>  0.0000  0.0089  0.0004 </r>
        <r>  0.0000  0.0108  0.0004 </r>
        <r>  0.0000  0.0025  0.0005 </r>
        <r>  0.0000  0.0024  0.0004 </r>
        <r>  0.0005  0.0012  0.0013 </r>
        <r>  0.0006  0.0012  0.0013 </r>
        <r>  0.0004  0.0031  0.0020 </r>
        <r>  0.0005  0.0032  0.0020 </r>
        <r>  0.0000  0.0032  0.0007 </r>
        <r>  0.0021  0.0061  0.0070 </r>
        <r>  0.0000  0.0008  0.0001 </r>
        <r>  0.0001  0.0125  0.0064 </r>
        <r>  0.0002  0.0036  0.0022 </r>
        <r>  0.0003  0.0035  0.0021 </r>
        <r>  0.0006  0.0048  0.0014 </r>
        <r>  0.0007  0.0048  0.0013 </r>
       </set>
       <set comment="band 105">
        <r>  0.0036  0.0030  0.0218 </r>
        <r>  0.0000  0.0010  0.0236 </r>
        <r>  0.0011  0.0007  0.0488 </r>
        <r>  0.0000  0.0003  0.0218 </r>
        <r>  0.0001  0.0038  0.0007 </r>
        <r>  0.0001  0.0038  0.0007 </r>
        <r>  0.0001  0.0058  0.0008 </r>
        <r>  0.0001  0.0072  0.0007 </r>
        <r>  0.0010  0.0020  0.0025 </r>
        <r>  0.0012  0.0018  0.0025 </r>
        <r>  0.0011  0.0014  0.0022 </r>
        <r>  0.0013  0.0013  0.0022 </r>
        <r>  0.0004  0.0075  0.0027 </r>
        <r>  0.0000  0.0010  0.0009 </r>
        <r>  0.0024  0.0044  0.0048 </r>
        <r>  0.0000  0.0012  0.0011 </r>
        <r>  0.0014  0.0007  0.0024 </r>
        <r>  0.0016  0.0007  0.0025 </r>
        <r>  0.0003  0.0061  0.0028 </r>
        <r>  0.0005  0.0061  0.0030 </r>
       </set>
       <set comment="band 106">
        <r>  0.0000  0.0010  0.0236 </r>
        <r>  0.0036  0.0030  0.0218 </r>
        <r>  0.0000  0.0003  0.0218 </r>
        <r>  0.0011  0.0007  0.0488 </r>
        <r>  0.0001  0.0038  0.0007 </r>
        <r>  0.0001  0.0038  0.0007 </r>
        <r>  0.0001  0.0072  0.0007 </r>
        <r>  0.0001  0.0058  0.0008 </r>
        <r>  0.0013  0.0013  0.0022 </r>
        <r>  0.0011  0.0014  0.0022 </r>
        <r>  0.0012  0.0018  0.0025 </r>
        <r>  0.0010  0.0020  0.0025 </r>
        <r>  0.0000  0.0010  0.0009 </r>
        <r>  0.0004  0.0075  0.0027 </r>
        <r>  0.0000  0.0012  0.0011 </r>
        <r>  0.0024  0.0044  0.0048 </r>
        <r>  0.0005  0.0061  0.0030 </r>
        <r>  0.0003  0.0061  0.0028 </r>
        <r>  0.0016  0.0007  0.0025 </r>
        <r>  0.0014  0.0007  0.0024 </r>
       </set>
       <set comment="band 107">
        <r>  0.0021  0.0023  0.0196 </r>
        <r>  0.0000  0.0002  0.0247 </r>
        <r>  0.0005  0.0046  0.0425 </r>
        <r>  0.0000  0.0012  0.0345 </r>
        <r>  0.0001  0.0060  0.0010 </r>
        <r>  0.0001  0.0066  0.0010 </r>
        <r>  0.0001  0.0052  0.0009 </r>
        <r>  0.0001  0.0051  0.0009 </r>
        <r>  0.0008  0.0039  0.0049 </r>
        <r>  0.0008  0.0039  0.0050 </r>
        <r>  0.0010  0.0023  0.0034 </r>
        <r>  0.0010  0.0023  0.0036 </r>
        <r>  0.0017  0.0068  0.0022 </r>
        <r>  0.0000  0.0041  0.0008 </r>
        <r>  0.0002  0.0042  0.0003 </r>
        <r>  0.0000  0.0009  0.0019 </r>
        <r>  0.0005  0.0016  0.0015 </r>
        <r>  0.0006  0.0015  0.0015 </r>
        <r>  0.0009  0.0027  0.0044 </r>
        <r>  0.0009  0.0027  0.0044 </r>
       </set>
       <set comment="band 108">
        <r>  0.0000  0.0002  0.0247 </r>
        <r>  0.0021  0.0023  0.0196 </r>
        <r>  0.0000  0.0012  0.0345 </r>
        <r>  0.0005  0.0046  0.0425 </r>
        <r>  0.0001  0.0066  0.0010 </r>
        <r>  0.0001  0.0060  0.0010 </r>
        <r>  0.0001  0.0051  0.0009 </r>
        <r>  0.0001  0.0052  0.0009 </r>
        <r>  0.0010  0.0023  0.0036 </r>
        <r>  0.0010  0.0023  0.0034 </r>
        <r>  0.0008  0.0039  0.0050 </r>
        <r>  0.0008  0.0039  0.0049 </r>
        <r>  0.0000  0.0041  0.0008 </r>
        <r>  0.0017  0.0068  0.0022 </r>
        <r>  0.0000  0.0009  0.0019 </r>
        <r>  0.0002  0.0042  0.0003 </r>
        <r>  0.0009  0.0027  0.0044 </r>
        <r>  0.0009  0.0027  0.0044 </r>
        <r>  0.0006  0.0015  0.0015 </r>
        <r>  0.0005  0.0016  0.0015 </r>
       </set>
       <set comment="band 109">
        <r>  0.0003  0.0056  0.0344 </r>
        <r>  0.0000  0.0011  0.0273 </r>
        <r>  0.0010  0.0060  0.0357 </r>
        <r>  0.0000  0.0002  0.0129 </r>
        <r>  0.0000  0.0052  0.0007 </r>
        <r>  0.0000  0.0057  0.0007 </r>
        <r>  0.0000  0.0040  0.0010 </r>
        <r>  0.0000  0.0045  0.0010 </r>
        <r>  0.0004  0.0032  0.0039 </r>
        <r>  0.0004  0.0035  0.0038 </r>
        <r>  0.0001  0.0031  0.0006 </r>
        <r>  0.0001  0.0034  0.0006 </r>
        <r>  0.0001  0.0087  0.0041 </r>
        <r>  0.0000  0.0027  0.0011 </r>
        <r>  0.0047  0.0023  0.0042 </r>
        <r>  0.0000  0.0047  0.0014 </r>
        <r>  0.0011  0.0015  0.0012 </r>
        <r>  0.0013  0.0016  0.0014 </r>
        <r>  0.0021  0.0036  0.0049 </r>
        <r>  0.0023  0.0037  0.0051 </r>
       </set>
       <set comment="band 110">
        <r>  0.0000  0.0011  0.0273 </r>
        <r>  0.0003  0.0056  0.0344 </r>
        <r>  0.0000  0.0002  0.0129 </r>
        <r>  0.0010  0.0060  0.0357 </r>
        <r>  0.0000  0.0057  0.0007 </r>
        <r>  0.0000  0.0052  0.0007 </r>
        <r>  0.0000  0.0045  0.0010 </r>
        <r>  0.0000  0.0040  0.0010 </r>
        <r>  0.0001  0.0034  0.0006 </r>
        <r>  0.0001  0.0031  0.0006 </r>
        <r>  0.0004  0.0035  0.0038 </r>
        <r>  0.0004  0.0032  0.0039 </r>
        <r>  0.0000  0.0027  0.0011 </r>
        <r>  0.0001  0.0087  0.0041 </r>
        <r>  0.0000  0.0047  0.0014 </r>
        <r>  0.0047  0.0023  0.0042 </r>
        <r>  0.0023  0.0037  0.0051 </r>
        <r>  0.0021  0.0036  0.0049 </r>
        <r>  0.0013  0.0016  0.0014 </r>
        <r>  0.0011  0.0015  0.0012 </r>
       </set>
       <set comment="band 111">
        <r>  0.0015  0.0025  0.0296 </r>
        <r>  0.0011  0.0021  0.0228 </r>
        <r>  0.0032  0.0024  0.0311 </r>
        <r>  0.0022  0.0020  0.0323 </r>
        <r>  0.0001  0.0012  0.0017 </r>
        <r>  0.0000  0.0054  0.0008 </r>
        <r>  0.0000  0.0106  0.0006 </r>
        <r>  0.0002  0.0004  0.0011 </r>
        <r>  0.0002  0.0070  0.0030 </r>
        <r>  0.0014  0.0020  0.0043 </r>
        <r>  0.0001  0.0063  0.0023 </r>
        <r>  0.0013  0.0013  0.0036 </r>
        <r>  0.0007  0.0048  0.0026 </r>
        <r>  0.0005  0.0032  0.0026 </r>
        <r>  0.0001  0.0094  0.0013 </r>
        <r>  0.0001  0.0064  0.0010 </r>
        <r>  0.0017  0.0035  0.0043 </r>
        <r>  0.0000  0.0018  0.0016 </r>
        <r>  0.0016  0.0042  0.0042 </r>
        <r>  0.0000  0.0025  0.0015 </r>
       </set>
       <set comment="band 112">
        <r>  0.0010  0.0021  0.0228 </r>
        <r>  0.0016  0.0025  0.0295 </r>
        <r>  0.0022  0.0020  0.0323 </r>
        <r>  0.0032  0.0024  0.0311 </r>
        <r>  0.0000  0.0054  0.0008 </r>
        <r>  0.0001  0.0012  0.0017 </r>
        <r>  0.0002  0.0004  0.0011 </r>
        <r>  0.0000  0.0106  0.0006 </r>
        <r>  0.0013  0.0013  0.0036 </r>
        <r>  0.0001  0.0063  0.0023 </r>
        <r>  0.0014  0.0020  0.0043 </r>
        <r>  0.0002  0.0070  0.0030 </r>
        <r>  0.0005  0.0032  0.0026 </r>
        <r>  0.0007  0.0048  0.0026 </r>
        <r>  0.0001  0.0064  0.0010 </r>
        <r>  0.0001  0.0094  0.0013 </r>
        <r>  0.0000  0.0025  0.0015 </r>
        <r>  0.0016  0.0042  0.0042 </r>
        <r>  0.0000  0.0018  0.0016 </r>
        <r>  0.0016  0.0035  0.0042 </r>
       </set>
      </set>
     </set>
    </set>
   </array>
  </projected>
 </calculation>
 <structure name="finalpos" >
  <crystal>
   <varray name="basis" >
    <v>      -5.94469573      -5.94469573       0.00000000 </v>
    <v>      -5.73988822       5.73988822       0.00000000 </v>
    <v>       0.00000000       0.00000000     -11.74238932 </v>
   </varray>
   <i name="volume">    801.34501050 </i>
   <varray name="rec_basis" >
    <v>      -0.08410859      -0.08410859      -0.00000000 </v>
    <v>      -0.08710971       0.08710971       0.00000000 </v>
    <v>      -0.00000000       0.00000000      -0.08516154 </v>
   </varray>
  </crystal>
  <varray name="positions" >
   <v>       0.56127414       0.01823886       0.75000000 </v>
   <v>       0.43872586       0.98176114       0.25000000 </v>
   <v>       0.06127414       0.48176114       0.75000000 </v>
   <v>       0.93872586       0.51823886       0.25000000 </v>
   <v>       0.00000000       0.00000000       0.00000000 </v>
   <v>       0.00000000       0.00000000       0.50000000 </v>
   <v>       0.50000000       0.50000000       0.00000000 </v>
   <v>       0.50000000       0.50000000       0.50000000 </v>
   <v>       0.79590415       0.29886542       0.96312369 </v>
   <v>       0.79590415       0.29886542       0.53687631 </v>
   <v>       0.20409585       0.70113458       0.03687631 </v>
   <v>       0.20409585       0.70113458       0.46312369 </v>
   <v>       0.99341930       0.93028597       0.75000000 </v>
   <v>       0.00658070       0.06971403       0.25000000 </v>
   <v>       0.49341930       0.56971403       0.75000000 </v>
   <v>       0.50658070       0.43028597       0.25000000 </v>
   <v>       0.70409585       0.79886542       0.03687631 </v>
   <v>       0.70409585       0.79886542       0.46312369 </v>
   <v>       0.29590415       0.20113458       0.96312369 </v>
   <v>       0.29590415       0.20113458       0.53687631 </v>
  </varray>
 </structure>
</modeling>
