 running on   64 total cores
 distrk:  each k-point on   64 cores,    1 groups
 distr:  one band on    8 cores,    8 groups
 using from now: INCAR     
 vasp.5.4.4.18Apr17-6-g9f103f2a35 (build Jun 22 2020 09:27:21) complex           
 POSCAR found type information on POSCAR  Cs Pb Br
 POSCAR found :  3 types and      20 ions
 scaLAPACK will be used
 LDA part: xc-table for Pade appr. of Perdew
 POSCAR found type information on POSCAR  Cs Pb Br
 POSCAR found :  3 types and      20 ions
 POSCAR, INCAR and KPOINTS ok, starting setup
 FFT: planning ...
 WAVECAR not read
 WARNING: random wavefunctions but no delay for mixing, default for NELMDL
 entering main loop
       N       E                     dE             d eps       ncg     rms          rms(c)
DAV:   1     0.663931369062E+03    0.66393E+03   -0.56306E+04  1824   0.924E+02
DAV:   2    -0.578610128017E+03   -0.12425E+04   -0.11933E+04  2232   0.286E+02
DAV:   3    -0.749259303165E+03   -0.17065E+03   -0.16969E+03  2432   0.126E+02
DAV:   4    -0.754541251698E+03   -0.52819E+01   -0.52670E+01  2160   0.293E+01
DAV:   5    -0.754778070497E+03   -0.23682E+00   -0.23663E+00  2400   0.496E+00    0.706E+00
DAV:   6    -0.715011655705E+03    0.39766E+02   -0.11800E+01  2376   0.283E+01    0.503E+00
DAV:   7    -0.714782933193E+03    0.22872E+00   -0.38098E+00  2272   0.482E+00    0.258E+00
DAV:   8    -0.714877561114E+03   -0.94628E-01   -0.18042E-01  2168   0.169E+00    0.148E+00
DAV:   9    -0.714918068420E+03   -0.40507E-01   -0.81115E-02  2024   0.118E+00    0.327E-01
DAV:  10    -0.714918801514E+03   -0.73309E-03   -0.45330E-03  2512   0.318E-01    0.182E-01
DAV:  11    -0.714920180424E+03   -0.13789E-02   -0.15119E-03  2048   0.158E-01    0.640E-02
DAV:  12    -0.714920303631E+03   -0.12321E-03   -0.43682E-04  2088   0.883E-02    0.228E-02
DAV:  13    -0.714920315503E+03   -0.11872E-04   -0.37906E-05  2312   0.240E-02    0.700E-03
DAV:  14    -0.714920324926E+03   -0.94233E-05   -0.28503E-06  1736   0.529E-03    0.194E-03
DAV:  15    -0.714920332055E+03   -0.71283E-05   -0.58329E-07  1272   0.348E-03    0.106E-03
DAV:  16    -0.714920327664E+03    0.43903E-05   -0.13358E-07  1176   0.197E-03    0.339E-04
DAV:  17    -0.714920326224E+03    0.14402E-05   -0.47806E-08  1120   0.990E-04    0.169E-04
DAV:  18    -0.714920326241E+03   -0.16548E-07   -0.36635E-08  1112   0.778E-04
   1 F= -.71492033E+03 E0= -.71492033E+03  d E =-.555817E-44
Application 1865630 resources: utime ~7764s, stime ~72s, Rss ~77764, inblocks ~1422, outblocks ~50784
