CsPbBr3 cubic bulk                      
           1
    -5.944696   -5.944696    0.000000
    -5.739888    5.739888    0.000000
     0.000000    0.000000  -11.742389
   Cs   Pb   Br
   4   4  12
Direct configuration=     1
   0.56127414  0.01823886  0.75000000
   0.43872586  0.98176114  0.25000000
   0.06127414  0.48176114  0.75000000
   0.93872586  0.51823886  0.25000000
   0.00000000  0.00000000  0.00000000
   0.00000000  0.00000000  0.50000000
   0.50000000  0.50000000  0.00000000
   0.50000000  0.50000000  0.50000000
   0.79590415  0.29886542  0.96312369
   0.79590415  0.29886542  0.53687631
   0.20409585  0.70113458  0.03687631
   0.20409585  0.70113458  0.46312369
   0.99341930  0.93028597  0.75000000
   0.00658070  0.06971403  0.25000000
   0.49341930  0.56971403  0.75000000
   0.50658070  0.43028597  0.25000000
   0.70409585  0.79886542  0.03687631
   0.70409585  0.79886542  0.46312369
   0.29590415  0.20113458  0.96312369
   0.29590415  0.20113458  0.53687631
