  39  39   1   0
  0.4103261E+02  0.1166835E-08  0.1176381E-08  0.1166835E-08  0.5000000E-15
   1.0000000000000000E-004
  CAR 
 CsPbBr3 cubic bulk                      
      7.99582100    -22.43957524  301      0.31088345      1.00000000
    -22.440  0.0000E+00  0.0000E+00
    -22.338  0.0000E+00  0.0000E+00
    -22.237  0.0000E+00  0.0000E+00
    -22.135  0.0000E+00  0.0000E+00
    -22.034  0.0000E+00  0.0000E+00
    -21.932  0.0000E+00  0.0000E+00
    -21.831  0.0000E+00  0.0000E+00
    -21.729  0.0000E+00  0.0000E+00
    -21.628  0.0000E+00  0.0000E+00
    -21.527  0.0000E+00  0.0000E+00
    -21.425  0.0000E+00  0.0000E+00
    -21.324  0.0000E+00  0.0000E+00
    -21.222  0.0000E+00  0.0000E+00
    -21.121  0.0000E+00  0.0000E+00
    -21.019  0.4805E+02  0.4875E+01
    -20.918  0.1974E+02  0.1000E+02
    -20.816  0.1971E+02  0.1400E+02
    -20.715  0.0000E+00  0.1400E+02
    -20.613  0.0000E+00  0.1400E+02
    -20.512  0.0000E+00  0.1400E+02
    -20.411  0.0000E+00  0.1400E+02
    -20.309  0.0000E+00  0.1400E+02
    -20.208  0.0000E+00  0.1400E+02
    -20.106  0.0000E+00  0.1400E+02
    -20.005  0.0000E+00  0.1400E+02
    -19.903  0.0000E+00  0.1400E+02
    -19.802  0.0000E+00  0.1400E+02
    -19.700  0.0000E+00  0.1400E+02
    -19.599  0.0000E+00  0.1400E+02
    -19.497  0.0000E+00  0.1400E+02
    -19.396  0.0000E+00  0.1400E+02
    -19.295  0.0000E+00  0.1400E+02
    -19.193  0.0000E+00  0.1400E+02
    -19.092  0.0000E+00  0.1400E+02
    -18.990  0.0000E+00  0.1400E+02
    -18.889  0.0000E+00  0.1400E+02
    -18.787  0.0000E+00  0.1400E+02
    -18.686  0.0000E+00  0.1400E+02
    -18.584  0.0000E+00  0.1400E+02
    -18.483  0.0000E+00  0.1400E+02
    -18.382  0.0000E+00  0.1400E+02
    -18.280  0.0000E+00  0.1400E+02
    -18.179  0.0000E+00  0.1400E+02
    -18.077  0.0000E+00  0.1400E+02
    -17.976  0.0000E+00  0.1400E+02
    -17.874  0.0000E+00  0.1400E+02
    -17.773  0.0000E+00  0.1400E+02
    -17.671  0.0000E+00  0.1400E+02
    -17.570  0.0000E+00  0.1400E+02
    -17.468  0.0000E+00  0.1400E+02
    -17.367  0.0000E+00  0.1400E+02
    -17.266  0.0000E+00  0.1400E+02
    -17.164  0.0000E+00  0.1400E+02
    -17.063  0.0000E+00  0.1400E+02
    -16.961  0.3283E-14  0.1400E+02
    -16.860  0.4523E+02  0.1859E+02
    -16.758  0.1207E+03  0.3299E+02
    -16.657  0.1577E+03  0.5400E+02
    -16.555  0.1022E+02  0.5504E+02
    -16.454  0.1032E+03  0.6947E+02
    -16.352  0.2365E+03  0.9399E+02
    -16.251  0.0000E+00  0.9400E+02
    -16.150  0.0000E+00  0.9400E+02
    -16.048  0.0000E+00  0.9400E+02
    -15.947  0.0000E+00  0.9400E+02
    -15.845  0.0000E+00  0.9400E+02
    -15.744  0.0000E+00  0.9400E+02
    -15.642  0.0000E+00  0.9400E+02
    -15.541  0.0000E+00  0.9400E+02
    -15.439  0.0000E+00  0.9400E+02
    -15.338  0.0000E+00  0.9400E+02
    -15.237  0.0000E+00  0.9400E+02
    -15.135  0.0000E+00  0.9400E+02
    -15.034  0.1830E+02  0.9586E+02
    -14.932  0.0000E+00  0.9600E+02
    -14.831  0.3113E-05  0.9600E+02
    -14.729  0.1971E+02  0.9800E+02
    -14.628  0.1138E-02  0.9800E+02
    -14.526  0.2969E+02  0.1010E+03
    -14.425  0.1511E+02  0.1030E+03
    -14.323  0.3099E+02  0.1069E+03
    -14.222  0.3349E+02  0.1116E+03
    -14.121  0.6664E+02  0.1198E+03
    -14.019  0.6614E+02  0.1277E+03
    -13.918  0.4179E+02  0.1327E+03
    -13.816  0.4956E+02  0.1390E+03
    -13.715  0.0000E+00  0.1400E+03
    -13.613  0.1882E+02  0.1419E+03
    -13.512  0.0000E+00  0.1420E+03
    -13.410  0.0000E+00  0.1420E+03
    -13.309  0.0000E+00  0.1420E+03
    -13.208  0.0000E+00  0.1420E+03
    -13.106  0.0000E+00  0.1420E+03
    -13.005  0.0000E+00  0.1420E+03
    -12.903  0.0000E+00  0.1420E+03
    -12.802  0.0000E+00  0.1420E+03
    -12.700  0.0000E+00  0.1420E+03
    -12.599  0.0000E+00  0.1420E+03
    -12.497  0.0000E+00  0.1420E+03
    -12.396  0.0000E+00  0.1420E+03
    -12.294  0.0000E+00  0.1420E+03
    -12.193  0.0000E+00  0.1420E+03
    -12.092  0.0000E+00  0.1420E+03
    -11.990  0.0000E+00  0.1420E+03
    -11.889  0.0000E+00  0.1420E+03
    -11.787  0.0000E+00  0.1420E+03
    -11.686  0.0000E+00  0.1420E+03
    -11.584  0.0000E+00  0.1420E+03
    -11.483  0.0000E+00  0.1420E+03
    -11.381  0.0000E+00  0.1420E+03
    -11.280  0.0000E+00  0.1420E+03
    -11.178  0.0000E+00  0.1420E+03
    -11.077  0.0000E+00  0.1420E+03
    -10.976  0.0000E+00  0.1420E+03
    -10.874  0.0000E+00  0.1420E+03
    -10.773  0.0000E+00  0.1420E+03
    -10.671  0.0000E+00  0.1420E+03
    -10.570  0.0000E+00  0.1420E+03
    -10.468  0.0000E+00  0.1420E+03
    -10.367  0.0000E+00  0.1420E+03
    -10.265  0.0000E+00  0.1420E+03
    -10.164  0.0000E+00  0.1420E+03
    -10.063  0.0000E+00  0.1420E+03
     -9.961  0.0000E+00  0.1420E+03
     -9.860  0.0000E+00  0.1420E+03
     -9.758  0.0000E+00  0.1420E+03
     -9.657  0.0000E+00  0.1420E+03
     -9.555  0.0000E+00  0.1420E+03
     -9.454  0.0000E+00  0.1420E+03
     -9.352  0.0000E+00  0.1420E+03
     -9.251  0.0000E+00  0.1420E+03
     -9.149  0.0000E+00  0.1420E+03
     -9.048  0.0000E+00  0.1420E+03
     -8.947  0.0000E+00  0.1420E+03
     -8.845  0.0000E+00  0.1420E+03
     -8.744  0.0000E+00  0.1420E+03
     -8.642  0.0000E+00  0.1420E+03
     -8.541  0.0000E+00  0.1420E+03
     -8.439  0.2464E+01  0.1422E+03
     -8.338  0.2465E+01  0.1425E+03
     -8.236  0.1140E+02  0.1437E+03
     -8.135  0.9594E+01  0.1447E+03
     -8.033  0.1000E+02  0.1458E+03
     -7.932  0.1311E+02  0.1476E+03
     -7.831  0.1164E+02  0.1492E+03
     -7.729  0.1725E+02  0.1513E+03
     -7.628  0.1597E+02  0.1531E+03
     -7.526  0.3527E+02  0.1571E+03
     -7.425  0.7661E+02  0.1658E+03
     -7.323  0.1300E+03  0.1852E+03
     -7.222  0.1064E+03  0.1980E+03
     -7.120  0.2482E+01  0.1985E+03
     -7.019  0.6385E+01  0.1994E+03
     -6.918  0.2464E+01  0.1997E+03
     -6.816  0.0000E+00  0.1998E+03
     -6.715  0.2464E+01  0.2000E+03
     -6.613  0.0000E+00  0.2000E+03
     -6.512  0.0000E+00  0.2000E+03
     -6.410  0.0000E+00  0.2000E+03
     -6.309  0.0000E+00  0.2000E+03
     -6.207  0.0000E+00  0.2000E+03
     -6.106  0.0000E+00  0.2000E+03
     -6.004  0.0000E+00  0.2000E+03
     -5.903  0.0000E+00  0.2000E+03
     -5.802  0.0000E+00  0.2000E+03
     -5.700  0.0000E+00  0.2000E+03
     -5.599  0.0000E+00  0.2000E+03
     -5.497  0.0000E+00  0.2000E+03
     -5.396  0.0000E+00  0.2000E+03
     -5.294  0.0000E+00  0.2000E+03
     -5.193  0.0000E+00  0.2000E+03
     -5.091  0.0000E+00  0.2000E+03
     -4.990  0.0000E+00  0.2000E+03
     -4.888  0.0000E+00  0.2000E+03
     -4.787  0.0000E+00  0.2000E+03
     -4.686  0.0000E+00  0.2000E+03
     -4.584  0.0000E+00  0.2000E+03
     -4.483  0.0000E+00  0.2000E+03
     -4.381  0.0000E+00  0.2000E+03
     -4.280  0.0000E+00  0.2000E+03
     -4.178  0.0000E+00  0.2000E+03
     -4.077  0.0000E+00  0.2000E+03
     -3.975  0.0000E+00  0.2000E+03
     -3.874  0.0000E+00  0.2000E+03
     -3.773  0.0000E+00  0.2000E+03
     -3.671  0.9840E+01  0.2010E+03
     -3.570  0.2273E+02  0.2033E+03
     -3.468  0.5271E-08  0.2040E+03
     -3.367  0.9805E+01  0.2050E+03
     -3.265  0.2551E+02  0.2078E+03
     -3.164  0.2044E+02  0.2113E+03
     -3.062  0.1173E+02  0.2132E+03
     -2.961  0.5678E+01  0.2141E+03
     -2.859  0.1598E+02  0.2164E+03
     -2.758  0.2823E+02  0.2196E+03
     -2.657  0.2576E+02  0.2229E+03
     -2.555  0.2837E+02  0.2264E+03
     -2.454  0.2971E+02  0.2303E+03
     -2.352  0.4587E+02  0.2362E+03
     -2.251  0.3735E+02  0.2410E+03
     -2.149  0.2594E+02  0.2446E+03
     -2.048  0.2510E+02  0.2480E+03
     -1.946  0.3012E+02  0.2518E+03
     -1.845  0.5242E+02  0.2588E+03
     -1.744  0.4376E+02  0.2647E+03
     -1.642  0.7559E+02  0.2732E+03
     -1.541  0.8597E+02  0.2830E+03
     -1.439  0.6857E+02  0.2920E+03
     -1.338  0.8819E+02  0.3027E+03
     -1.236  0.6248E+02  0.3103E+03
     -1.135  0.7295E+02  0.3194E+03
     -1.033  0.4136E+02  0.3249E+03
     -0.932  0.3585E+02  0.3289E+03
     -0.830  0.4302E+02  0.3341E+03
     -0.729  0.2380E+02  0.3372E+03
     -0.628  0.1669E+02  0.3389E+03
     -0.526  0.4940E+01  0.3403E+03
     -0.425  0.8441E+01  0.3414E+03
     -0.323  0.2463E+01  0.3420E+03
     -0.222  0.7393E+01  0.3428E+03
     -0.120  0.4928E+01  0.3432E+03
     -0.019  0.4277E+01  0.3437E+03
      0.083  0.0000E+00  0.3438E+03
      0.184  0.0000E+00  0.3438E+03
      0.286  0.2464E+01  0.3440E+03
      0.387  0.0000E+00  0.3440E+03
      0.488  0.0000E+00  0.3440E+03
      0.590  0.0000E+00  0.3440E+03
      0.691  0.0000E+00  0.3440E+03
      0.793  0.0000E+00  0.3440E+03
      0.894  0.0000E+00  0.3440E+03
      0.996  0.0000E+00  0.3440E+03
      1.097  0.0000E+00  0.3440E+03
      1.199  0.0000E+00  0.3440E+03
      1.300  0.0000E+00  0.3440E+03
      1.401  0.0000E+00  0.3440E+03
      1.503  0.0000E+00  0.3440E+03
      1.604  0.0000E+00  0.3440E+03
      1.706  0.0000E+00  0.3440E+03
      1.807  0.0000E+00  0.3440E+03
      1.909  0.0000E+00  0.3440E+03
      2.010  0.0000E+00  0.3440E+03
      2.112  0.0000E+00  0.3440E+03
      2.213  0.0000E+00  0.3440E+03
      2.315  0.0000E+00  0.3440E+03
      2.416  0.1081E-13  0.3440E+03
      2.517  0.4776E+01  0.3445E+03
      2.619  0.6492E+01  0.3452E+03
      2.720  0.1402E+02  0.3467E+03
      2.822  0.7474E+01  0.3480E+03
      2.923  0.8913E+01  0.3492E+03
      3.025  0.1729E+02  0.3513E+03
      3.126  0.9559E+01  0.3527E+03
      3.228  0.1012E+02  0.3548E+03
      3.329  0.5918E+00  0.3551E+03
      3.431  0.3534E+00  0.3558E+03
      3.532  0.0000E+00  0.3560E+03
      3.633  0.0000E+00  0.3560E+03
      3.735  0.2388E+01  0.3562E+03
      3.836  0.4929E+01  0.3570E+03
      3.938  0.1817E+02  0.3588E+03
      4.039  0.1150E+02  0.3607E+03
      4.141  0.1355E+02  0.3626E+03
      4.242  0.2472E+02  0.3655E+03
      4.344  0.2923E+02  0.3690E+03
      4.445  0.2268E+02  0.3718E+03
      4.546  0.2015E+02  0.3745E+03
      4.648  0.1468E+02  0.3765E+03
      4.749  0.2172E+02  0.3790E+03
      4.851  0.4928E+01  0.3797E+03
      4.952  0.4347E+01  0.3802E+03
      5.054  0.1547E+01  0.3804E+03
      5.155  0.2464E+01  0.3807E+03
      5.257  0.7552E+01  0.3815E+03
      5.358  0.1233E+02  0.3833E+03
      5.460  0.1269E+02  0.3848E+03
      5.561  0.1705E+02  0.3867E+03
      5.662  0.1940E+02  0.3890E+03
      5.764  0.1321E+02  0.3903E+03
      5.865  0.1184E+02  0.3922E+03
      5.967  0.1997E+02  0.3950E+03
      6.068  0.2689E+02  0.3980E+03
      6.170  0.3460E+02  0.4020E+03
      6.271  0.2876E+02  0.4059E+03
      6.373  0.2679E+02  0.4097E+03
      6.474  0.2153E+02  0.4134E+03
      6.576  0.9853E+01  0.4157E+03
      6.677  0.2464E+01  0.4160E+03
      6.778  0.0000E+00  0.4160E+03
      6.880  0.0000E+00  0.4160E+03
      6.981  0.0000E+00  0.4160E+03
      7.083  0.0000E+00  0.4160E+03
      7.184  0.0000E+00  0.4160E+03
      7.286  0.0000E+00  0.4160E+03
      7.387  0.0000E+00  0.4160E+03
      7.489  0.0000E+00  0.4160E+03
      7.590  0.0000E+00  0.4160E+03
      7.691  0.0000E+00  0.4160E+03
      7.793  0.0000E+00  0.4160E+03
      7.894  0.0000E+00  0.4160E+03
      7.996  0.0000E+00  0.4160E+03
      7.99582100    -22.43957524  301      0.31088345      1.00000000
    -22.440  0.0000E+00  0.0000E+00  0.0000E+00
    -22.338  0.0000E+00  0.0000E+00  0.0000E+00
    -22.237  0.0000E+00  0.0000E+00  0.0000E+00
    -22.135  0.0000E+00  0.0000E+00  0.0000E+00
    -22.034  0.0000E+00  0.0000E+00  0.0000E+00
    -21.932  0.0000E+00  0.0000E+00  0.0000E+00
    -21.831  0.0000E+00  0.0000E+00  0.0000E+00
    -21.729  0.0000E+00  0.0000E+00  0.0000E+00
    -21.628  0.0000E+00  0.0000E+00  0.0000E+00
    -21.527  0.0000E+00  0.0000E+00  0.0000E+00
    -21.425  0.0000E+00  0.0000E+00  0.0000E+00
    -21.324  0.0000E+00  0.0000E+00  0.0000E+00
    -21.222  0.0000E+00  0.0000E+00  0.0000E+00
    -21.121  0.0000E+00  0.0000E+00  0.0000E+00
    -21.019  0.1742E-02  0.1572E-06  0.1846E-07
    -20.918  0.1749E+02  0.2714E-04  0.3458E-05
    -20.816  0.2357E-02  0.2165E-06  0.2357E-07
    -20.715  0.0000E+00  0.0000E+00  0.0000E+00
    -20.613  0.0000E+00  0.0000E+00  0.0000E+00
    -20.512  0.0000E+00  0.0000E+00  0.0000E+00
    -20.411  0.0000E+00  0.0000E+00  0.0000E+00
    -20.309  0.0000E+00  0.0000E+00  0.0000E+00
    -20.208  0.0000E+00  0.0000E+00  0.0000E+00
    -20.106  0.0000E+00  0.0000E+00  0.0000E+00
    -20.005  0.0000E+00  0.0000E+00  0.0000E+00
    -19.903  0.0000E+00  0.0000E+00  0.0000E+00
    -19.802  0.0000E+00  0.0000E+00  0.0000E+00
    -19.700  0.0000E+00  0.0000E+00  0.0000E+00
    -19.599  0.0000E+00  0.0000E+00  0.0000E+00
    -19.497  0.0000E+00  0.0000E+00  0.0000E+00
    -19.396  0.0000E+00  0.0000E+00  0.0000E+00
    -19.295  0.0000E+00  0.0000E+00  0.0000E+00
    -19.193  0.0000E+00  0.0000E+00  0.0000E+00
    -19.092  0.0000E+00  0.0000E+00  0.0000E+00
    -18.990  0.0000E+00  0.0000E+00  0.0000E+00
    -18.889  0.0000E+00  0.0000E+00  0.0000E+00
    -18.787  0.0000E+00  0.0000E+00  0.0000E+00
    -18.686  0.0000E+00  0.0000E+00  0.0000E+00
    -18.584  0.0000E+00  0.0000E+00  0.0000E+00
    -18.483  0.0000E+00  0.0000E+00  0.0000E+00
    -18.382  0.0000E+00  0.0000E+00  0.0000E+00
    -18.280  0.0000E+00  0.0000E+00  0.0000E+00
    -18.179  0.0000E+00  0.0000E+00  0.0000E+00
    -18.077  0.0000E+00  0.0000E+00  0.0000E+00
    -17.976  0.0000E+00  0.0000E+00  0.0000E+00
    -17.874  0.0000E+00  0.0000E+00  0.0000E+00
    -17.773  0.0000E+00  0.0000E+00  0.0000E+00
    -17.671  0.0000E+00  0.0000E+00  0.0000E+00
    -17.570  0.0000E+00  0.0000E+00  0.0000E+00
    -17.468  0.0000E+00  0.0000E+00  0.0000E+00
    -17.367  0.0000E+00  0.0000E+00  0.0000E+00
    -17.266  0.0000E+00  0.0000E+00  0.0000E+00
    -17.164  0.0000E+00  0.0000E+00  0.0000E+00
    -17.063  0.0000E+00  0.0000E+00  0.0000E+00
    -16.961  0.7467E-21  0.1606E-20  0.6754E-21
    -16.860  0.1117E-04  0.1551E-04  0.4934E-05
    -16.758  0.3970E-04  0.4879E-04  0.9485E-05
    -16.657  0.2705E-04  0.1403E-04  0.1871E-05
    -16.555  0.5833E-05  0.2234E-05  0.1499E-06
    -16.454  0.4257E-04  0.4515E-04  0.7615E-05
    -16.352  0.1184E-04  0.5893E-05  0.5262E-06
    -16.251  0.0000E+00  0.0000E+00  0.0000E+00
    -16.150  0.0000E+00  0.0000E+00  0.0000E+00
    -16.048  0.0000E+00  0.0000E+00  0.0000E+00
    -15.947  0.0000E+00  0.0000E+00  0.0000E+00
    -15.845  0.0000E+00  0.0000E+00  0.0000E+00
    -15.744  0.0000E+00  0.0000E+00  0.0000E+00
    -15.642  0.0000E+00  0.0000E+00  0.0000E+00
    -15.541  0.0000E+00  0.0000E+00  0.0000E+00
    -15.439  0.0000E+00  0.0000E+00  0.0000E+00
    -15.338  0.0000E+00  0.0000E+00  0.0000E+00
    -15.237  0.0000E+00  0.0000E+00  0.0000E+00
    -15.135  0.0000E+00  0.0000E+00  0.0000E+00
    -15.034  0.6090E-04  0.6018E-04  0.3885E-05
    -14.932  0.0000E+00  0.0000E+00  0.0000E+00
    -14.831  0.1493E-09  0.1626E-10  0.1791E-11
    -14.729  0.2623E-03  0.2353E-03  0.1068E-04
    -14.628  0.1338E-06  0.1875E-07  0.5414E-09
    -14.526  0.8639E-03  0.7271E-03  0.2713E-04
    -14.425  0.4795E-02  0.7356E-03  0.1880E-04
    -14.323  0.2147E-02  0.9357E-02  0.1182E-03
    -14.222  0.3121E-03  0.5683E-02  0.2840E-03
    -14.121  0.1835E-02  0.4256E-02  0.1164E-02
    -14.019  0.1432E-02  0.2371E-02  0.3402E-03
    -13.918  0.7045E-03  0.2252E-02  0.2284E-03
    -13.816  0.3006E-03  0.8173E-03  0.6886E-04
    -13.715  0.0000E+00  0.0000E+00  0.0000E+00
    -13.613  0.6902E-05  0.6830E-04  0.1361E-04
    -13.512  0.0000E+00  0.0000E+00  0.0000E+00
    -13.410  0.0000E+00  0.0000E+00  0.0000E+00
    -13.309  0.0000E+00  0.0000E+00  0.0000E+00
    -13.208  0.0000E+00  0.0000E+00  0.0000E+00
    -13.106  0.0000E+00  0.0000E+00  0.0000E+00
    -13.005  0.0000E+00  0.0000E+00  0.0000E+00
    -12.903  0.0000E+00  0.0000E+00  0.0000E+00
    -12.802  0.0000E+00  0.0000E+00  0.0000E+00
    -12.700  0.0000E+00  0.0000E+00  0.0000E+00
    -12.599  0.0000E+00  0.0000E+00  0.0000E+00
    -12.497  0.0000E+00  0.0000E+00  0.0000E+00
    -12.396  0.0000E+00  0.0000E+00  0.0000E+00
    -12.294  0.0000E+00  0.0000E+00  0.0000E+00
    -12.193  0.0000E+00  0.0000E+00  0.0000E+00
    -12.092  0.0000E+00  0.0000E+00  0.0000E+00
    -11.990  0.0000E+00  0.0000E+00  0.0000E+00
    -11.889  0.0000E+00  0.0000E+00  0.0000E+00
    -11.787  0.0000E+00  0.0000E+00  0.0000E+00
    -11.686  0.0000E+00  0.0000E+00  0.0000E+00
    -11.584  0.0000E+00  0.0000E+00  0.0000E+00
    -11.483  0.0000E+00  0.0000E+00  0.0000E+00
    -11.381  0.0000E+00  0.0000E+00  0.0000E+00
    -11.280  0.0000E+00  0.0000E+00  0.0000E+00
    -11.178  0.0000E+00  0.0000E+00  0.0000E+00
    -11.077  0.0000E+00  0.0000E+00  0.0000E+00
    -10.976  0.0000E+00  0.0000E+00  0.0000E+00
    -10.874  0.0000E+00  0.0000E+00  0.0000E+00
    -10.773  0.0000E+00  0.0000E+00  0.0000E+00
    -10.671  0.0000E+00  0.0000E+00  0.0000E+00
    -10.570  0.0000E+00  0.0000E+00  0.0000E+00
    -10.468  0.0000E+00  0.0000E+00  0.0000E+00
    -10.367  0.0000E+00  0.0000E+00  0.0000E+00
    -10.265  0.0000E+00  0.0000E+00  0.0000E+00
    -10.164  0.0000E+00  0.0000E+00  0.0000E+00
    -10.063  0.0000E+00  0.0000E+00  0.0000E+00
     -9.961  0.0000E+00  0.0000E+00  0.0000E+00
     -9.860  0.0000E+00  0.0000E+00  0.0000E+00
     -9.758  0.0000E+00  0.0000E+00  0.0000E+00
     -9.657  0.0000E+00  0.0000E+00  0.0000E+00
     -9.555  0.0000E+00  0.0000E+00  0.0000E+00
     -9.454  0.0000E+00  0.0000E+00  0.0000E+00
     -9.352  0.0000E+00  0.0000E+00  0.0000E+00
     -9.251  0.0000E+00  0.0000E+00  0.0000E+00
     -9.149  0.0000E+00  0.0000E+00  0.0000E+00
     -9.048  0.0000E+00  0.0000E+00  0.0000E+00
     -8.947  0.0000E+00  0.0000E+00  0.0000E+00
     -8.845  0.0000E+00  0.0000E+00  0.0000E+00
     -8.744  0.0000E+00  0.0000E+00  0.0000E+00
     -8.642  0.0000E+00  0.0000E+00  0.0000E+00
     -8.541  0.0000E+00  0.0000E+00  0.0000E+00
     -8.439  0.4369E-16  0.4775E-04  0.5300E-05
     -8.338  0.1054E-15  0.3442E-03  0.2000E-05
     -8.236  0.2695E-06  0.1260E-02  0.2640E-04
     -8.135  0.7452E-06  0.1473E-02  0.2378E-04
     -8.033  0.3518E-05  0.1513E-02  0.2920E-04
     -7.932  0.1458E-05  0.2473E-02  0.2937E-04
     -7.831  0.1259E-05  0.1498E-01  0.1377E-04
     -7.729  0.9853E-06  0.4663E-01  0.2945E-04
     -7.628  0.5312E-05  0.3590E-01  0.3454E-04
     -7.526  0.4882E-04  0.3624E+00  0.4802E-04
     -7.425  0.5602E-04  0.1692E+01  0.4244E-04
     -7.323  0.8893E-04  0.3728E+02  0.8838E-04
     -7.222  0.7656E-04  0.1616E+01  0.5879E-04
     -7.120  0.2537E-04  0.7313E-01  0.2546E-05
     -7.019  0.3243E-04  0.3655E-01  0.1909E-04
     -6.918  0.4598E-04  0.6575E-03  0.3866E-05
     -6.816  0.0000E+00  0.0000E+00  0.0000E+00
     -6.715  0.3984E-04  0.2929E-02  0.1528E-05
     -6.613  0.0000E+00  0.0000E+00  0.0000E+00
     -6.512  0.0000E+00  0.0000E+00  0.0000E+00
     -6.410  0.0000E+00  0.0000E+00  0.0000E+00
     -6.309  0.0000E+00  0.0000E+00  0.0000E+00
     -6.207  0.0000E+00  0.0000E+00  0.0000E+00
     -6.106  0.0000E+00  0.0000E+00  0.0000E+00
     -6.004  0.0000E+00  0.0000E+00  0.0000E+00
     -5.903  0.0000E+00  0.0000E+00  0.0000E+00
     -5.802  0.0000E+00  0.0000E+00  0.0000E+00
     -5.700  0.0000E+00  0.0000E+00  0.0000E+00
     -5.599  0.0000E+00  0.0000E+00  0.0000E+00
     -5.497  0.0000E+00  0.0000E+00  0.0000E+00
     -5.396  0.0000E+00  0.0000E+00  0.0000E+00
     -5.294  0.0000E+00  0.0000E+00  0.0000E+00
     -5.193  0.0000E+00  0.0000E+00  0.0000E+00
     -5.091  0.0000E+00  0.0000E+00  0.0000E+00
     -4.990  0.0000E+00  0.0000E+00  0.0000E+00
     -4.888  0.0000E+00  0.0000E+00  0.0000E+00
     -4.787  0.0000E+00  0.0000E+00  0.0000E+00
     -4.686  0.0000E+00  0.0000E+00  0.0000E+00
     -4.584  0.0000E+00  0.0000E+00  0.0000E+00
     -4.483  0.0000E+00  0.0000E+00  0.0000E+00
     -4.381  0.0000E+00  0.0000E+00  0.0000E+00
     -4.280  0.0000E+00  0.0000E+00  0.0000E+00
     -4.178  0.0000E+00  0.0000E+00  0.0000E+00
     -4.077  0.0000E+00  0.0000E+00  0.0000E+00
     -3.975  0.0000E+00  0.0000E+00  0.0000E+00
     -3.874  0.0000E+00  0.0000E+00  0.0000E+00
     -3.773  0.0000E+00  0.0000E+00  0.0000E+00
     -3.671  0.1463E-05  0.7479E-02  0.2570E-03
     -3.570  0.4546E-06  0.1043E-01  0.1095E-02
     -3.468  0.2682E-12  0.1077E-10  0.2359E-12
     -3.367  0.2711E-03  0.1406E-01  0.7447E-03
     -3.265  0.2076E-03  0.1405E-01  0.1551E-02
     -3.164  0.4790E-04  0.3514E-02  0.5796E-03
     -3.062  0.2318E-03  0.1666E-01  0.3150E-03
     -2.961  0.2910E-03  0.2739E-02  0.2181E-03
     -2.859  0.8652E-03  0.1531E-01  0.6044E-03
     -2.758  0.1113E-02  0.2775E-01  0.1347E-02
     -2.657  0.9948E-03  0.1138E-01  0.2274E-02
     -2.555  0.1948E-02  0.1936E-01  0.2106E-02
     -2.454  0.2059E-02  0.1295E-01  0.3292E-02
     -2.352  0.2205E-02  0.2484E-01  0.4156E-02
     -2.251  0.1785E-01  0.2828E-01  0.4134E-02
     -2.149  0.1849E-01  0.1742E-01  0.2064E-02
     -2.048  0.2097E-02  0.7212E-01  0.3340E-02
     -1.946  0.1401E-02  0.6115E-01  0.5656E-02
     -1.845  0.3227E-02  0.1189E+00  0.1064E-01
     -1.744  0.6755E-02  0.1072E+00  0.1142E-01
     -1.642  0.2357E-02  0.8260E-01  0.2326E-01
     -1.541  0.5649E-02  0.8535E-01  0.3077E-01
     -1.439  0.3608E-02  0.1378E+00  0.1657E-01
     -1.338  0.1537E-02  0.6654E-01  0.1146E-01
     -1.236  0.6501E-03  0.1970E-01  0.5781E-02
     -1.135  0.9552E-03  0.4166E-01  0.7139E-02
     -1.033  0.3928E-03  0.1810E-01  0.5209E-02
     -0.932  0.9291E-03  0.2153E-01  0.3503E-02
     -0.830  0.2892E-03  0.1111E-01  0.3473E-02
     -0.729  0.2691E-03  0.3065E-02  0.1503E-02
     -0.628  0.8087E-04  0.2611E-02  0.9630E-03
     -0.526  0.2716E-04  0.1507E-02  0.4607E-03
     -0.425  0.6583E-04  0.8419E-03  0.3532E-03
     -0.323  0.1490E-04  0.6739E-03  0.1799E-03
     -0.222  0.9547E-13  0.2630E-03  0.6765E-03
     -0.120  0.1122E-05  0.5356E-03  0.2352E-03
     -0.019  0.5314E-13  0.1222E-03  0.3579E-03
      0.083  0.0000E+00  0.0000E+00  0.0000E+00
      0.184  0.0000E+00  0.0000E+00  0.0000E+00
      0.286  0.1138E-13  0.5981E-04  0.1276E-03
      0.387  0.0000E+00  0.0000E+00  0.0000E+00
      0.488  0.0000E+00  0.0000E+00  0.0000E+00
      0.590  0.0000E+00  0.0000E+00  0.0000E+00
      0.691  0.0000E+00  0.0000E+00  0.0000E+00
      0.793  0.0000E+00  0.0000E+00  0.0000E+00
      0.894  0.0000E+00  0.0000E+00  0.0000E+00
      0.996  0.0000E+00  0.0000E+00  0.0000E+00
      1.097  0.0000E+00  0.0000E+00  0.0000E+00
      1.199  0.0000E+00  0.0000E+00  0.0000E+00
      1.300  0.0000E+00  0.0000E+00  0.0000E+00
      1.401  0.0000E+00  0.0000E+00  0.0000E+00
      1.503  0.0000E+00  0.0000E+00  0.0000E+00
      1.604  0.0000E+00  0.0000E+00  0.0000E+00
      1.706  0.0000E+00  0.0000E+00  0.0000E+00
      1.807  0.0000E+00  0.0000E+00  0.0000E+00
      1.909  0.0000E+00  0.0000E+00  0.0000E+00
      2.010  0.0000E+00  0.0000E+00  0.0000E+00
      2.112  0.0000E+00  0.0000E+00  0.0000E+00
      2.213  0.0000E+00  0.0000E+00  0.0000E+00
      2.315  0.0000E+00  0.0000E+00  0.0000E+00
      2.416  0.2779E-27  0.1185E-19  0.3176E-17
      2.517  0.4080E-09  0.7023E-04  0.1315E-02
      2.619  0.6888E-04  0.2666E-03  0.1740E-02
      2.720  0.7056E-04  0.1011E-02  0.4094E-02
      2.822  0.5805E-04  0.1577E-02  0.1801E-02
      2.923  0.6058E-03  0.1486E-02  0.2067E-02
      3.025  0.7788E-03  0.4216E-02  0.2861E-02
      3.126  0.1081E-02  0.1650E-02  0.1282E-02
      3.228  0.2491E-03  0.8462E-03  0.2238E-02
      3.329  0.4428E-05  0.1275E-03  0.1076E-03
      3.431  0.2573E-04  0.1042E-04  0.9378E-04
      3.532  0.0000E+00  0.0000E+00  0.0000E+00
      3.633  0.0000E+00  0.0000E+00  0.0000E+00
      3.735  0.1363E-03  0.2372E-03  0.4677E-03
      3.836  0.5156E-09  0.2635E-03  0.2430E-02
      3.938  0.4135E-03  0.1366E-02  0.6786E-02
      4.039  0.3937E-04  0.5657E-03  0.4012E-02
      4.141  0.9385E-04  0.6493E-03  0.4127E-02
      4.242  0.1129E-02  0.4516E-02  0.6521E-02
      4.344  0.1056E-02  0.3279E-02  0.1228E-01
      4.445  0.1749E-02  0.6232E-02  0.9391E-02
      4.546  0.2059E-02  0.3294E-02  0.1077E-01
      4.648  0.2230E-02  0.4695E-02  0.5737E-02
      4.749  0.7575E-02  0.4041E-02  0.1036E-01
      4.851  0.1430E-02  0.2125E-02  0.5735E-02
      4.952  0.1179E-02  0.1434E-02  0.3928E-02
      5.054  0.1135E-11  0.1533E-04  0.2600E-03
      5.155  0.1322E-09  0.1294E-04  0.2769E-03
      5.257  0.1842E-02  0.2225E-03  0.1652E-02
      5.358  0.5850E-02  0.5486E-02  0.1744E-02
      5.460  0.3511E-01  0.2099E-02  0.9777E-02
      5.561  0.5380E-03  0.7329E-02  0.1598E-01
      5.662  0.5403E-02  0.5807E-02  0.2229E-01
      5.764  0.7161E-02  0.3846E-02  0.4798E-01
      5.865  0.2278E-01  0.1149E-01  0.4807E-01
      5.967  0.3050E-01  0.1364E-01  0.8590E-01
      6.068  0.1173E-01  0.1700E-01  0.2871E+00
      6.170  0.1343E-01  0.1576E-01  0.3183E+00
      6.271  0.3638E-01  0.2159E-01  0.4197E+00
      6.373  0.1198E-01  0.7964E-02  0.3002E+00
      6.474  0.1822E-01  0.2217E-01  0.4121E+00
      6.576  0.1466E-01  0.1190E-01  0.1338E+00
      6.677  0.3637E-04  0.2701E-02  0.8353E-02
      6.778  0.0000E+00  0.0000E+00  0.0000E+00
      6.880  0.0000E+00  0.0000E+00  0.0000E+00
      6.981  0.0000E+00  0.0000E+00  0.0000E+00
      7.083  0.0000E+00  0.0000E+00  0.0000E+00
      7.184  0.0000E+00  0.0000E+00  0.0000E+00
      7.286  0.0000E+00  0.0000E+00  0.0000E+00
      7.387  0.0000E+00  0.0000E+00  0.0000E+00
      7.489  0.0000E+00  0.0000E+00  0.0000E+00
      7.590  0.0000E+00  0.0000E+00  0.0000E+00
      7.691  0.0000E+00  0.0000E+00  0.0000E+00
      7.793  0.0000E+00  0.0000E+00  0.0000E+00
      7.894  0.0000E+00  0.0000E+00  0.0000E+00
      7.996  0.0000E+00  0.0000E+00  0.0000E+00
      7.99582100    -22.43957524  301      0.31088345      1.00000000
    -22.440  0.0000E+00  0.0000E+00  0.0000E+00
    -22.338  0.0000E+00  0.0000E+00  0.0000E+00
    -22.237  0.0000E+00  0.0000E+00  0.0000E+00
    -22.135  0.0000E+00  0.0000E+00  0.0000E+00
    -22.034  0.0000E+00  0.0000E+00  0.0000E+00
    -21.932  0.0000E+00  0.0000E+00  0.0000E+00
    -21.831  0.0000E+00  0.0000E+00  0.0000E+00
    -21.729  0.0000E+00  0.0000E+00  0.0000E+00
    -21.628  0.0000E+00  0.0000E+00  0.0000E+00
    -21.527  0.0000E+00  0.0000E+00  0.0000E+00
    -21.425  0.0000E+00  0.0000E+00  0.0000E+00
    -21.324  0.0000E+00  0.0000E+00  0.0000E+00
    -21.222  0.0000E+00  0.0000E+00  0.0000E+00
    -21.121  0.0000E+00  0.0000E+00  0.0000E+00
    -21.019  0.3007E-03  0.7184E-07  0.1448E-07
    -20.918  0.2324E-01  0.8062E-07  0.6619E-08
    -20.816  0.4573E-01  0.2572E-06  0.4832E-07
    -20.715  0.0000E+00  0.0000E+00  0.0000E+00
    -20.613  0.0000E+00  0.0000E+00  0.0000E+00
    -20.512  0.0000E+00  0.0000E+00  0.0000E+00
    -20.411  0.0000E+00  0.0000E+00  0.0000E+00
    -20.309  0.0000E+00  0.0000E+00  0.0000E+00
    -20.208  0.0000E+00  0.0000E+00  0.0000E+00
    -20.106  0.0000E+00  0.0000E+00  0.0000E+00
    -20.005  0.0000E+00  0.0000E+00  0.0000E+00
    -19.903  0.0000E+00  0.0000E+00  0.0000E+00
    -19.802  0.0000E+00  0.0000E+00  0.0000E+00
    -19.700  0.0000E+00  0.0000E+00  0.0000E+00
    -19.599  0.0000E+00  0.0000E+00  0.0000E+00
    -19.497  0.0000E+00  0.0000E+00  0.0000E+00
    -19.396  0.0000E+00  0.0000E+00  0.0000E+00
    -19.295  0.0000E+00  0.0000E+00  0.0000E+00
    -19.193  0.0000E+00  0.0000E+00  0.0000E+00
    -19.092  0.0000E+00  0.0000E+00  0.0000E+00
    -18.990  0.0000E+00  0.0000E+00  0.0000E+00
    -18.889  0.0000E+00  0.0000E+00  0.0000E+00
    -18.787  0.0000E+00  0.0000E+00  0.0000E+00
    -18.686  0.0000E+00  0.0000E+00  0.0000E+00
    -18.584  0.0000E+00  0.0000E+00  0.0000E+00
    -18.483  0.0000E+00  0.0000E+00  0.0000E+00
    -18.382  0.0000E+00  0.0000E+00  0.0000E+00
    -18.280  0.0000E+00  0.0000E+00  0.0000E+00
    -18.179  0.0000E+00  0.0000E+00  0.0000E+00
    -18.077  0.0000E+00  0.0000E+00  0.0000E+00
    -17.976  0.0000E+00  0.0000E+00  0.0000E+00
    -17.874  0.0000E+00  0.0000E+00  0.0000E+00
    -17.773  0.0000E+00  0.0000E+00  0.0000E+00
    -17.671  0.0000E+00  0.0000E+00  0.0000E+00
    -17.570  0.0000E+00  0.0000E+00  0.0000E+00
    -17.468  0.0000E+00  0.0000E+00  0.0000E+00
    -17.367  0.0000E+00  0.0000E+00  0.0000E+00
    -17.266  0.0000E+00  0.0000E+00  0.0000E+00
    -17.164  0.0000E+00  0.0000E+00  0.0000E+00
    -17.063  0.0000E+00  0.0000E+00  0.0000E+00
    -16.961  0.1156E-20  0.4233E-21  0.4034E-22
    -16.860  0.3160E-04  0.7251E-05  0.8655E-06
    -16.758  0.3187E-04  0.2821E-04  0.5243E-05
    -16.657  0.8125E-05  0.4085E-05  0.5166E-06
    -16.555  0.8844E-05  0.1108E-04  0.3091E-05
    -16.454  0.4266E-04  0.4782E-04  0.7613E-05
    -16.352  0.6511E-04  0.3681E-04  0.4389E-05
    -16.251  0.0000E+00  0.0000E+00  0.0000E+00
    -16.150  0.0000E+00  0.0000E+00  0.0000E+00
    -16.048  0.0000E+00  0.0000E+00  0.0000E+00
    -15.947  0.0000E+00  0.0000E+00  0.0000E+00
    -15.845  0.0000E+00  0.0000E+00  0.0000E+00
    -15.744  0.0000E+00  0.0000E+00  0.0000E+00
    -15.642  0.0000E+00  0.0000E+00  0.0000E+00
    -15.541  0.0000E+00  0.0000E+00  0.0000E+00
    -15.439  0.0000E+00  0.0000E+00  0.0000E+00
    -15.338  0.0000E+00  0.0000E+00  0.0000E+00
    -15.237  0.0000E+00  0.0000E+00  0.0000E+00
    -15.135  0.0000E+00  0.0000E+00  0.0000E+00
    -15.034  0.1044E-03  0.4573E-04  0.1223E-05
    -14.932  0.0000E+00  0.0000E+00  0.0000E+00
    -14.831  0.7983E-10  0.1797E-10  0.4525E-12
    -14.729  0.2411E-03  0.1097E-03  0.2434E-05
    -14.628  0.1845E-09  0.1314E-07  0.2634E-09
    -14.526  0.2693E-04  0.1001E-03  0.8618E-05
    -14.425  0.6958E-03  0.8851E-03  0.4928E-04
    -14.323  0.2818E-02  0.2646E-02  0.1474E-03
    -14.222  0.2040E-02  0.2300E-02  0.1124E-03
    -14.121  0.3231E-02  0.3001E-02  0.2339E-03
    -14.019  0.2354E-02  0.9685E-02  0.5378E-03
    -13.918  0.1881E-02  0.3571E-02  0.4947E-03
    -13.816  0.8791E-04  0.1955E-02  0.4562E-03
    -13.715  0.0000E+00  0.0000E+00  0.0000E+00
    -13.613  0.1306E-03  0.2680E-03  0.1226E-04
    -13.512  0.0000E+00  0.0000E+00  0.0000E+00
    -13.410  0.0000E+00  0.0000E+00  0.0000E+00