       N       E                     dE             d eps       ncg     rms          rms(c)
DAV:   1     0.136352897763E+04    0.13635E+04   -0.11063E+05  3496   0.971E+02
DAV:   2    -0.108789900387E+04   -0.24514E+04   -0.23682E+04  4120   0.300E+02
DAV:   3    -0.145092190693E+04   -0.36302E+03   -0.36095E+03  4408   0.137E+02
DAV:   4    -0.146337027465E+04   -0.12448E+02   -0.12413E+02  4000   0.335E+01
DAV:   5    -0.146390268315E+04   -0.53241E+00   -0.53212E+00  4408   0.536E+00    0.110E+01
DAV:   6    -0.138479434721E+04    0.79108E+02   -0.23444E+01  4392   0.324E+01    0.760E+00
DAV:   7    -0.138439423949E+04    0.40011E+00   -0.94488E+00  4160   0.586E+00    0.380E+00
DAV:   8    -0.138457893955E+04   -0.18470E+00   -0.42505E-01  3928   0.203E+00    0.222E+00
DAV:   9    -0.138466226240E+04   -0.83323E-01   -0.15790E-01  3680   0.131E+00    0.425E-01
DAV:  10    -0.138466477921E+04   -0.25168E-02   -0.14864E-02  4680   0.388E-01    0.277E-01
DAV:  11    -0.138466723126E+04   -0.24521E-02   -0.21658E-03  3816   0.144E-01    0.117E-01
DAV:  12    -0.138466925392E+04   -0.20227E-02   -0.24168E-03  3728   0.125E-01    0.626E-02
DAV:  13    -0.138466903573E+04    0.21818E-03   -0.10033E-03  4408   0.905E-02    0.283E-02
DAV:  14    -0.138466900415E+04    0.31583E-04   -0.13979E-04  3824   0.237E-02    0.199E-02
DAV:  15    -0.138466900691E+04   -0.27566E-05   -0.24416E-05  3584   0.115E-02    0.111E-02
DAV:  16    -0.138466906966E+04   -0.62754E-04   -0.17239E-05  3736   0.128E-02    0.517E-03
DAV:  17    -0.138466906519E+04    0.44748E-05   -0.36232E-06  3360   0.508E-03    0.391E-03
DAV:  18    -0.138466906254E+04    0.26501E-05   -0.16375E-06  2520   0.279E-03    0.157E-03
DAV:  19    -0.138466906266E+04   -0.12000E-06   -0.28690E-07  2104   0.199E-03
   1 F= -.13846691E+04 E0= -.13846691E+04  d E =-.228268E-14
