 vasp.5.4.4.18Apr17-6-g9f103f2a35 (build Jun 22 2020 09:27:21) complex           
 executed on tx2_gcc-7.3_libsci-1 date 2021.10.12  05:44:35
 running on   64 total cores
 distrk:  each k-point on   64 cores,    1 groups
 distr:  one band on NCORES_PER_BAND=   8 cores,    8 groups


--------------------------------------------------------------------------------------------------------


 INCAR:
 POTCAR:    PAW_PBE Cs_sv 08Apr2002               
 POTCAR:    PAW_PBE Pb_d 06Sep2000                
 POTCAR:    PAW_PBE Br 06Sep2000                  
 POTCAR:    PAW_PBE Cs_sv 08Apr2002               
 POTCAR:    PAW_PBE Cs_sv 08Apr2002               
   SHA256 =  c1463496f0f6037ed62c6012a8013a89ee9ad6ffb38599dcd6c079e7ed31779b Cs
   COPYR  = (c) Copyright 08Apr2002 Georg Kresse                                
   COPYR  = This file is part of the software VASP. Any use, copying, and all ot
   COPYR  = If you do not have a valid VASP license, you may not use, copy or di
   VRHFIN =Cs: 5s5p6s                                                           
   LEXCH  = PE                                                                  
   EATOM  =   555.6835 eV,   40.8416 Ry                                         
                                                                                
   TITEL  = PAW_PBE Cs_sv 08Apr2002                                             
   LULTRA =        F    use ultrasoft PP ?                                      
   IUNSCR =        1    unscreen: 0-lin 1-nonlin 2-no                           
   RPACOR =    2.200    partial core radius                                     
   POMASS =  132.900; ZVAL   =    9.000    mass and valenz                      
   RCORE  =    2.500    outmost cutoff radius                                   
   RWIGS  =    2.500; RWIGS  =    1.323    wigner-seitz radius (au A)           
   ENMAX  =  220.318; ENMIN  =  165.238 eV                                      
   RCLOC  =    2.207    cutoff for local pot                                    
   LCOR   =        T    correct aug charges                                     
   LPAW   =        T    paw PP                                                  
   EAUG   =  407.933                                                            
   DEXC   =    0.000                                                            
   RMAX   =    2.554    core radius for proj-oper                               
   RAUG   =    1.300    factor for augmentation sphere                          
   RDEP   =    2.590    radius for radial grids                                 
   RDEPT  =    2.117    core radius for aug-charge                              
                                                                                
   Atomic configuration                                                         
   13 entries                                                                   
     n  l   j            E        occ.                                          
     1  0  0.50    -35790.1377   2.0000                                         
     2  0  0.50     -5613.6201   2.0000                                         
     2  1  1.50     -5035.0101   6.0000                                         
     3  0  0.50     -1167.0767   2.0000                                         
     3  1  1.50      -980.9754   6.0000                                         
     3  2  2.50      -708.0703  10.0000                                         
     4  0  0.50      -220.2386   2.0000                                         
     4  1  1.50      -160.7596   6.0000                                         
     4  2  2.50       -74.2354  10.0000                                         
     5  0  0.50       -26.7287   2.0000                                         
     6  0  0.50        -2.0862   1.0000                                         
     5  1  1.50       -13.5159   6.0000                                         
     5  2  2.50        -0.4136   0.0000                                         
   Description                                                                  
     l       E           TYP  RCUT    TYP  RCUT                                 
     0    -26.7287425     23  1.900                                             
     0     -2.0862306     23  1.900                                             
     1    -13.5158719     23  2.500                                             
     1     -2.7211652     23  2.500                                             
     2     -0.4136171     23  2.500                                             
  local pseudopotential read in
  partial core-charges read in
  partial kinetic energy density read in
  atomic valenz-charges read in
  non local Contribution for L=           0  read in
    real space projection operators read in
  non local Contribution for L=           0  read in
    real space projection operators read in
  non local Contribution for L=           1  read in
    real space projection operators read in
  non local Contribution for L=           1  read in
    real space projection operators read in
  non local Contribution for L=           2  read in
    real space projection operators read in
    PAW grid and wavefunctions read in

   number of l-projection  operators is LMAX  =           5
   number of lm-projection operators is LMMAX =          13

 POTCAR:    PAW_PBE Pb_d 06Sep2000                
   SHA256 =  fb885b08f0fba73a15f6a6b0e39bd200c13ec96ef97cf3ecd8e63bade5137abd Pb
   COPYR  = (c) Copyright 06Sep2000 Georg Kresse                                
   COPYR  = This file is part of the software VASP. Any use, copying, and all ot
   COPYR  = If you do not have a valid VASP license, you may not use, copy or di
   VRHFIN =Pb:                                                                  
   LEXCH  = PE                                                                  
   EATOM  =  1661.6185 eV,  122.1255 Ry                                         
                                                                                
   TITEL  = PAW_PBE Pb_d 06Sep2000                                              
   LULTRA =        F    use ultrasoft PP ?                                      
   IUNSCR =        1    unscreen: 0-lin 1-nonlin 2-no                           
   RPACOR =    2.200    partial core radius                                     
   POMASS =  207.200; ZVAL   =   14.000    mass and valenz                      
   RCORE  =    2.500    outmost cutoff radius                                   
   RWIGS  =    3.260; RWIGS  =    1.725    wigner-seitz radius (au A)           
   ENMAX  =  237.835; ENMIN  =  178.376 eV                                      
   ICORE  =        3    local potential                                         
   LCOR   =        T    correct aug charges                                     
   LPAW   =        T    paw PP                                                  
   EAUG   =  391.914                                                            
   DEXC   =    0.000                                                            
   RMAX   =    2.565    core radius for proj-oper                               
   RAUG   =    1.300    factor for augmentation sphere                          
   RDEP   =    2.643    radius for radial grids                                 
   RDEPT  =    2.092    core radius for aug-charge                              
                                                                                
   Atomic configuration                                                         
   16 entries                                                                   
     n  l   j            E        occ.                                          
     1  0  0.50    -88091.8466   2.0000                                         
     2  0  0.50    -15753.4197   2.0000                                         
     2  1  1.50    -13508.1797   6.0000                                         
     3  0  0.50     -3781.7194   2.0000                                         
     3  1  1.50     -3138.2529   6.0000                                         
     3  2  2.50     -2483.2977  10.0000                                         
     4  0  0.50      -856.2895   2.0000                                         
     4  1  1.50      -645.4942   6.0000                                         
     4  2  2.50      -401.8768  10.0000                                         
     4  3  3.50      -132.9059  14.0000                                         
     5  0  0.50      -144.0950   2.0000                                         
     5  1  1.50       -85.7879   6.0000                                         
     5  2  2.50       -21.1769  10.0000                                         
     6  0  0.50       -12.0372   2.0000                                         
     6  1  1.50        -3.4971   2.0000                                         
     5  3  2.50        -2.7212   0.0000                                         
   Description                                                                  
     l       E           TYP  RCUT    TYP  RCUT                                 
     2    -21.1768523     23  2.500                                             
     2      1.3605826     23  2.500                                             
     0    -12.0371562     23  2.500                                             
     0     13.6058260     23  2.500                                             
     1     -3.4971339     23  2.500                                             
     1     13.6058260     23  2.500                                             
     3     -1.3605826      7  2.500                                             
  local pseudopotential read in
  partial core-charges read in
  partial kinetic energy density read in
  atomic valenz-charges read in
  non local Contribution for L=           2  read in
    real space projection operators read in
  non local Contribution for L=           2  read in
    real space projection operators read in
  non local Contribution for L=           0  read in
    real space projection operators read in
  non local Contribution for L=           0  read in
    real space projection operators read in
  non local Contribution for L=           1  read in
    real space projection operators read in
  non local Contribution for L=           1  read in
    real space projection operators read in
    PAW grid and wavefunctions read in

   number of l-projection  operators is LMAX  =           6
   number of lm-projection operators is LMMAX =          18

 POTCAR:    PAW_PBE Br 06Sep2000                  
   SHA256 =  96a73d2954943bbee26f4990d676cc6c3bf44b8dd2c75cd4b3b825d8403f0103 Br
   COPYR  = (c) Copyright 06Sep2000 Georg Kresse                                
   COPYR  = This file is part of the software VASP. Any use, copying, and all ot
   COPYR  = If you do not have a valid VASP license, you may not use, copy or di
   VRHFIN =Br: s2p5                                                             
   LEXCH  = PE                                                                  
   EATOM  =   368.4488 eV,   27.0802 Ry                                         
                                                                                
   TITEL  = PAW_PBE Br 06Sep2000                                                
   LULTRA =        F    use ultrasoft PP ?                                      
   IUNSCR =        1    unscreen: 0-lin 1-nonlin 2-no                           
   RPACOR =    1.900    partial core radius                                     
   POMASS =   79.904; ZVAL   =    7.000    mass and valenz                      
   RCORE  =    2.100    outmost cutoff radius                                   
   RWIGS  =    2.200; RWIGS  =    1.164    wigner-seitz radius (au A)           
   ENMAX  =  216.285; ENMIN  =  162.214 eV                                      
   ICORE  =        3    local potential                                         
   LCOR   =        T    correct aug charges                                     
   LPAW   =        T    paw PP                                                  
   EAUG   =  503.852                                                            
   DEXC   =    0.000                                                            
   RMAX   =    2.139    core radius for proj-oper                               
   RAUG   =    1.300    factor for augmentation sphere                          
   RDEP   =    2.186    radius for radial grids                                 
   RDEPT  =    1.890    core radius for aug-charge                              
                                                                                
   Atomic configuration                                                         
   10 entries                                                                   
     n  l   j            E        occ.                                          
     1  0  0.50    -13316.2796   2.0000                                         
     2  0  0.50     -1732.8239   2.0000                                         
     2  1  1.50     -1528.2193   6.0000                                         
     3  0  0.50      -238.0460   2.0000                                         
     3  1  1.50      -173.4609   6.0000                                         
     3  2  2.50       -66.7132  10.0000                                         
     4  0  0.50       -20.1334   2.0000                                         
     4  1  0.50        -7.8591   5.0000                                         
     4  2  2.50        -8.1635   0.0000                                         
     4  3  2.50        -8.1635   0.0000                                         
   Description                                                                  
     l       E           TYP  RCUT    TYP  RCUT                                 
     0    -20.1333652     23  2.100                                             
     0    -21.4939478     23  2.100                                             
     1     -7.8591052     23  2.100                                             
     1     -3.1608434     23  2.100                                             
     2     -8.1634956     23  2.100                                             
     3     -1.3605826      7  2.100                                             
  local pseudopotential read in
  partial core-charges read in
  partial kinetic energy density read in
  atomic valenz-charges read in
  non local Contribution for L=           0  read in
    real space projection operators read in
  non local Contribution for L=           0  read in
    real space projection operators read in
  non local Contribution for L=           1  read in
    real space projection operators read in
  non local Contribution for L=           1  read in
    real space projection operators read in
  non local Contribution for L=           2  read in
    real space projection operators read in
    PAW grid and wavefunctions read in

   number of l-projection  operators is LMAX  =           5
   number of lm-projection operators is LMMAX =          13

 POTCAR:    PAW_PBE Cs_sv 08Apr2002               
   SHA256 =  c1463496f0f6037ed62c6012a8013a89ee9ad6ffb38599dcd6c079e7ed31779b Cs
   COPYR  = (c) Copyright 08Apr2002 Georg Kresse                                
   COPYR  = This file is part of the software VASP. Any use, copying, and all ot
   COPYR  = If you do not have a valid VASP license, you may not use, copy or di
   VRHFIN =Cs: 5s5p6s                                                           
   LEXCH  = PE                                                                  
   EATOM  =   555.6835 eV,   40.8416 Ry                                         
                                                                                
   TITEL  = PAW_PBE Cs_sv 08Apr2002                                             
   LULTRA =        F    use ultrasoft PP ?                                      
   IUNSCR =        1    unscreen: 0-lin 1-nonlin 2-no                           
   RPACOR =    2.200    partial core radius                                     
   POMASS =  132.900; ZVAL   =    9.000    mass and valenz                      
   RCORE  =    2.500    outmost cutoff radius                                   
   RWIGS  =    2.500; RWIGS  =    1.323    wigner-seitz radius (au A)           
   ENMAX  =  220.318; ENMIN  =  165.238 eV                                      
   RCLOC  =    2.207    cutoff for local pot                                    
   LCOR   =        T    correct aug charges                                     
   LPAW   =        T    paw PP                                                  
   EAUG   =  407.933                                                            
   DEXC   =    0.000                                                            
   RMAX   =    2.554    core radius for proj-oper                               
   RAUG   =    1.300    factor for augmentation sphere                          
   RDEP   =    2.590    radius for radial grids                                 
   RDEPT  =    2.117    core radius for aug-charge                              
                                                                                
   Atomic configuration                                                         
   13 entries                                                                   
     n  l   j            E        occ.                                          
     1  0  0.50    -35790.1377   2.0000                                         
     2  0  0.50     -5613.6201   2.0000                                         
     2  1  1.50     -5035.0101   6.0000                                         
     3  0  0.50     -1167.0767   2.0000                                         
     3  1  1.50      -980.9754   6.0000                                         
     3  2  2.50      -708.0703  10.0000                                         
     4  0  0.50      -220.2386   2.0000                                         
     4  1  1.50      -160.7596   6.0000                                         
     4  2  2.50       -74.2354  10.0000                                         
     5  0  0.50       -26.7287   2.0000                                         
     6  0  0.50        -2.0862   1.0000                                         
     5  1  1.50       -13.5159   6.0000                                         
     5  2  2.50        -0.4136   0.0000                                         
   Description                                                                  
     l       E           TYP  RCUT    TYP  RCUT                                 
     0    -26.7287425     23  1.900                                             
     0     -2.0862306     23  1.900                                             
     1    -13.5158719     23  2.500                                             
     1     -2.7211652     23  2.500                                             
     2     -0.4136171     23  2.500                                             
  local pseudopotential read in
  partial core-charges read in
  partial kinetic energy density read in
  atomic valenz-charges read in
  non local Contribution for L=           0  read in
    real space projection operators read in
  non local Contribution for L=           0  read in
    real space projection operators read in
  non local Contribution for L=           1  read in
    real space projection operators read in
  non local Contribution for L=           1  read in
    real space projection operators read in
  non local Contribution for L=           2  read in
    real space projection operators read in
    PAW grid and wavefunctions read in

   number of l-projection  operators is LMAX  =           5
   number of lm-projection operators is LMMAX =          13

 Optimization of the real space projectors (new method)

 maximal supplied QI-value         = 15.12
 optimisation between [QCUT,QGAM] = [  8.77, 17.69] = [ 21.53, 87.61] Ry 
 Optimized for a Real-space Cutoff    1.85 Angstroem

   l    n(q)    QCUT    max X(q) W(low)/X(q) W(high)/X(q)  e(spline) 
   0     10     8.768    25.322    0.81E-04    0.51E-04    0.48E-06
   0     10     8.768    99.187    0.78E-04    0.50E-04    0.47E-06
   1      9     8.768    11.761    0.21E-03    0.20E-03    0.37E-06
   1      9     8.768     8.275    0.24E-03    0.22E-03    0.41E-06
   2      9     8.768     3.829    0.23E-04    0.15E-03    0.18E-06
 Optimization of the real space projectors (new method)

 maximal supplied QI-value         = 15.12
 optimisation between [QCUT,QGAM] = [  8.77, 17.69] = [ 21.53, 87.61] Ry 
 Optimized for a Real-space Cutoff    1.59 Angstroem

   l    n(q)    QCUT    max X(q) W(low)/X(q) W(high)/X(q)  e(spline) 
   2      7     8.768     3.846    0.48E-04    0.11E-03    0.11E-06
   2      7     8.768     8.593    0.20E-03    0.22E-04    0.24E-06
   0      8     8.768    20.082    0.68E-04    0.88E-04    0.41E-07
   0      8     8.768     8.597    0.89E-04    0.13E-03    0.59E-07
   1      8     8.768    33.223    0.15E-03    0.53E-04    0.87E-07
   1      8     8.768    15.899    0.14E-03    0.44E-04    0.78E-07
 Optimization of the real space projectors (new method)

 maximal supplied QI-value         = 17.95
 optimisation between [QCUT,QGAM] = [  8.80, 17.59] = [ 21.67, 86.68] Ry 
 Optimized for a Real-space Cutoff    1.59 Angstroem

   l    n(q)    QCUT    max X(q) W(low)/X(q) W(high)/X(q)  e(spline) 
   0      8     8.797   175.082    0.82E-04    0.14E-03    0.89E-07
   0      8     8.797   174.004    0.79E-04    0.14E-03    0.86E-07
   1      8     8.797    54.315    0.16E-03    0.14E-04    0.30E-06
   1      8     8.797    42.441    0.16E-03    0.14E-04    0.30E-06
   2      7     8.797     3.596    0.92E-04    0.15E-03    0.85E-07
 Optimization of the real space projectors (new method)

 maximal supplied QI-value         = 15.12
 optimisation between [QCUT,QGAM] = [  8.77, 17.69] = [ 21.53, 87.61] Ry 
 Optimized for a Real-space Cutoff    1.85 Angstroem

   l    n(q)    QCUT    max X(q) W(low)/X(q) W(high)/X(q)  e(spline) 
   0     10     8.768    25.322    0.81E-04    0.51E-04    0.48E-06
   0     10     8.768    99.187    0.78E-04    0.50E-04    0.47E-06
   1      9     8.768    11.761    0.21E-03    0.20E-03    0.37E-06
   1      9     8.768     8.275    0.24E-03    0.22E-03    0.41E-06
   2      9     8.768     3.829    0.23E-04    0.15E-03    0.18E-06
  PAW_PBE Cs_sv 08Apr2002               :
 energy of atom  1       EATOM= -555.6835
 kinetic energy error for atom=    0.0069 (will be added to EATOM!!)
  PAW_PBE Pb_d 06Sep2000                :
 energy of atom  2       EATOM=-1661.6185
 kinetic energy error for atom=    0.0498 (will be added to EATOM!!)
  PAW_PBE Br 06Sep2000                  :
 energy of atom  3       EATOM= -368.4488
 kinetic energy error for atom=    0.0072 (will be added to EATOM!!)
  PAW_PBE Cs_sv 08Apr2002               :
 energy of atom  4       EATOM= -555.6835
 kinetic energy error for atom=    0.0069 (will be added to EATOM!!)


 POSCAR: Cs7 Pb8 Br24                            
  positions in direct lattice
  No initial velocities read in

 METAGGA = SCAN     LMAXTAU =  6    LMIXTAU =  F

 exchange correlation table for  LEXCH =        8
   RHO(1)=    0.500       N(1)  =     2000
   RHO(2)=  100.500       N(2)  =     4000

 VTST: version 3.2, (02/03/18)

 CHAIN: initializing optimizer
 
 OPT: Using VASP Conjugate-Gradient optimizer
 CHAIN: Read ICHAIN            0

 POSCAR: Cs7 Pb8 Br24                            
  positions in direct lattice
  No initial velocities read in



--------------------------------------------------------------------------------------------------------


 ion  position               nearest neighbor table
   1  0.270  0.250  0.200-
   2  0.775  0.250  0.716-
   3  0.208  0.750  0.766-
   4  0.292  0.250  0.733-
   5  0.791  0.250  0.224-
   6  0.240  0.750  0.286-
   7  0.998  0.996  0.999-  19 2.98  29 2.98  34 3.00  17 3.02  28 3.03  31 3.03
   8  0.501  0.002  0.498-  20 2.98  18 3.00  33 3.00  32 3.00  27 3.00  30 3.03
   9  0.504  0.997  0.998-  15 2.97  29 2.98  27 3.01  33 3.02  21 3.02  31 3.05
  10  0.001  0.001  0.500-  30 2.98  16 2.98  22 2.99  34 3.00  28 3.02  32 3.03
  11  0.504  0.503  0.998-  15 2.97  35 2.98  37 3.01  25 3.02  21 3.02  23 3.05
  12  0.001  0.499  0.500-  36 2.98  16 2.98  22 2.99  26 3.00  38 3.02  24 3.03
  13  0.998  0.504  0.999-  19 2.98  35 2.98  26 3.00  17 3.02  38 3.03  23 3.03
  14  0.501  0.498  0.498-  20 2.98  18 3.00  25 3.00  24 3.00  37 3.00  36 3.03
  15  0.458  0.750  0.967-   9 2.97  11 2.97
  16  0.991  0.750  0.464-  12 2.98  10 2.98
  17  0.971  0.250  0.970-  13 3.02   7 3.02
  18  0.452  0.250  0.466-   8 3.00  14 3.00
  19  0.049  0.750  0.032-   7 2.98  13 2.98
  20  0.511  0.750  0.526-  14 2.98   8 2.98
  21  0.530  0.250  0.032-  11 3.02   9 3.02
  22  0.032  0.250  0.544-  12 2.99  10 2.99
  23  0.248  0.467  0.950-  13 3.03  11 3.05
  24  0.749  0.451  0.456-  14 3.00  12 3.03
  25  0.444  0.522  0.246-  14 3.00  11 3.02
  26  0.948  0.537  0.747-  13 3.00  12 3.00
  27  0.545  0.045  0.749-   8 3.00   9 3.01
  28  0.052  0.037  0.251-  10 3.02   7 3.03
  29  0.753  0.972  0.059-  39 2.73   9 2.98   7 2.98
  30  0.252  0.974  0.555-  10 2.98   8 3.03
  31  0.248  0.033  0.950-   7 3.03   9 3.05
  32  0.749  0.049  0.456-   8 3.00  10 3.03
  33  0.444  0.978  0.246-   8 3.00   9 3.02
  34  0.948  0.963  0.747-   7 3.00  10 3.00
  35  0.753  0.528  0.059-  39 2.73  11 2.98  13 2.98
  36  0.252  0.526  0.555-  12 2.98  14 3.03
  37  0.545  0.455  0.749-  14 3.00  11 3.01
  38  0.052  0.463  0.251-  12 3.02  13 3.03
  39  0.720  0.750  0.119-  35 2.73  29 2.73


IMPORTANT INFORMATION: All symmetrisations will be switched off!
NOSYMM: (Re-)initialisation of all symmetry stuff for point group C_1.



 KPOINTS: 1x1x1                                   

Automatic generation of k-mesh.
Space group operators:
 irot       det(A)        alpha          n_x          n_y          n_z        tau_x        tau_y        tau_z
    1     1.000000     0.000000     1.000000     0.000000     0.000000     0.000000     0.000000     0.000000
 
 Subroutine IBZKPT returns following result:
 ===========================================
 
 Found      8 irreducible k-points:
 
 Following reciprocal coordinates:
            Coordinates               Weight
  0.000000  0.000000  0.000000      1.000000
  0.500000  0.000000  0.000000      1.000000
  0.000000  0.500000  0.000000      1.000000
  0.500000  0.500000  0.000000      1.000000
  0.000000  0.000000  0.500000      1.000000
  0.500000  0.000000  0.500000      1.000000
  0.000000  0.500000  0.500000      1.000000
  0.500000  0.500000  0.500000      1.000000
 
 Following cartesian coordinates:
            Coordinates               Weight
  0.000000  0.000000  0.000000      1.000000
  0.029691  0.000000  0.030948      1.000000
  0.000000  0.042503  0.000000      1.000000
  0.029691  0.042503  0.030948      1.000000
 -0.029691  0.000000  0.030948      1.000000
  0.000000  0.000000  0.061897      1.000000
 -0.029691  0.042503  0.030948      1.000000
  0.000000  0.042503  0.061897      1.000000
 


--------------------------------------------------------------------------------------------------------




 Dimension of arrays:
   k-points           NKPTS =      8   k-points in BZ     NKDIM =      8   number of bands    NBANDS=    208
   number of dos      NEDOS =    301   number of ions     NIONS =     39
   non local maximal  LDIM  =      6   non local SUM 2l+1 LMDIM =     18
   total plane-waves  NPLWV = 343000
   max r-space proj   IRMAX =   5716   max aug-charges    IRDMAX=  91227
   dimension x,y,z NGX =    70 NGY =   70 NGZ =   70
   dimension x,y,z NGXF=   140 NGYF=  140 NGZF=  140
   support grid    NGXF=   280 NGYF=  280 NGZF=  280
   ions per type =               6   8  24   1
   NGX,Y,Z   is equivalent  to a cutoff of   9.97,  9.89,  9.97 a.u.
   NGXF,Y,Z  is equivalent  to a cutoff of  19.95, 19.78, 19.95 a.u.

 SYSTEM =  CsPbBr3 cubic bulk                      
 POSCAR =  Cs7 Pb8 Br24                            

 Startparameter for this run:
   NWRITE =      2    write-flag & timer
   PREC   = accura    normal or accurate (medium, high low for compatibility)
   ISTART =      0    job   : 0-new  1-cont  2-samecut
   ICHARG =      2    charge: 1-file 2-atom 10-const
   ISPIN  =      1    spin polarized calculation?
   LNONCOLLINEAR =      F non collinear calculations
   LSORBIT =      F    spin-orbit coupling
   INIWAV =      1    electr: 0-lowe 1-rand  2-diag
   LASPH  =      T    aspherical Exc in radial PAW
   METAGGA=      F    non-selfconsistent MetaGGA calc.

 Electronic Relaxation 1
   ENCUT  =  300.0 eV  22.05 Ry    4.70 a.u.  16.48 16.61 16.48*2*pi/ulx,y,z
   ENINI  =  300.0     initial cutoff
   ENAUG  =  503.9 eV  augmentation charge cutoff
   NELM   =    200;   NELMIN=  2; NELMDL= -5     # of ELM steps 
   EDIFF  = 0.1E-05   stopping-criterion for ELM
   LREAL  =      T    real-space projection
   NLSPLINE    = F    spline interpolate recip. space projectors
   LCOMPAT=      F    compatible to vasp.4.4
   GGA_COMPAT  = T    GGA compatible to vasp.4.4-vasp.4.6
   LMAXPAW     = -100 max onsite density
   LMAXMIX     =    2 max onsite mixed and CHGCAR
   VOSKOWN=      0    Vosko Wilk Nusair interpolation
   ROPT   =   -0.00025  -0.00025  -0.00025  -0.00025
 Ionic relaxation
   EDIFFG = -.1E-01   stopping-criterion for IOM
   NSW    =      0    number of steps for IOM
   NBLOCK =      1;   KBLOCK =      1    inner block; outer block 
   IBRION =     -1    ionic relax: 0-MD 1-quasi-New 2-CG
   NFREE  =      1    steps in history (QN), initial steepest desc. (CG)
   ISIF   =      2    stress and relaxation
   IWAVPR =     10    prediction:  0-non 1-charg 2-wave 3-comb
   ISYM   =      0    0-nonsym 1-usesym 2-fastsym
   LCORR  =      T    Harris-Foulkes like correction to forces

   POTIM  = 0.5000    time-step for ionic-motion
   TEIN   =    0.0    initial temperature
   TEBEG  =    0.0;   TEEND  =   0.0 temperature during run
   SMASS  =  -3.00    Nose mass-parameter (am)
   estimated Nose-frequenzy (Omega)   =  0.10E-29 period in steps =****** mass=  -0.311E-26a.u.
   SCALEE = 1.0000    scale energy and forces
   NPACO  =    256;   APACO  = 16.0  distance and # of slots for P.C.
   PSTRESS=    0.0 pullay stress

  Mass of Ions in am
   POMASS = 132.90207.20 79.90132.90
  Ionic Valenz
   ZVAL   =   9.00 14.00  7.00  9.00
  Atomic Wigner-Seitz radii
   RWIGS  =  -1.00 -1.00 -1.00 -1.00
  virtual crystal weights 
   VCA    =   1.00  1.00  1.00  1.00
   NELECT =     344.0000    total number of electrons
   NUPDOWN=       0.0000    fix difference up-down

 DOS related values:
   EMIN   =  10.00;   EMAX   =-10.00  energy-range for DOS
   EFERMI =   0.00
   ISMEAR =     0;   SIGMA  =   0.01  broadening in eV -4-tet -1-fermi 0-gaus

 Electronic relaxation 2 (details)
   IALGO  =     38    algorithm
   LDIAG  =      T    sub-space diagonalisation (order eigenvalues)
   LSUBROT=      F    optimize rotation matrix (better conditioning)
   TURBO    =      0    0=normal 1=particle mesh
   IRESTART =      0    0=no restart 2=restart with 2 vectors
   NREBOOT  =      0    no. of reboots
   NMIN     =      0    reboot dimension
   EREF     =   0.00    reference energy to select bands
   IMIX   =      4    mixing-type and parameters
     AMIX     =   0.40;   BMIX     =  1.00
     AMIX_MAG =   1.60;   BMIX_MAG =  1.00
     AMIN     =   0.10
     WC   =   100.;   INIMIX=   1;  MIXPRE=   1;  MAXMIX= -45

 Intra band minimization:
   WEIMIN = 0.0000     energy-eigenvalue tresh-hold
   EBREAK =  0.12E-08  absolut break condition
   DEPER  =   0.30     relativ break condition  

   TIME   =   0.40     timestep for ELM

  volume/ion in A,a.u.               =      41.03       276.90
  Fermi-wavevector in a.u.,A,eV,Ry     =   0.980685  1.853227 13.085320  0.961744
  Thomas-Fermi vector in A             =   2.111635

 Write flags
   LWAVE        =      F    write WAVECAR
   LDOWNSAMPLE  =      F    k-point downsampling of WAVECAR
   LCHARG       =      F    write CHGCAR
   LVTOT        =      F    write LOCPOT, total local potential
   LVHAR        =      T    write LOCPOT, Hartree potential only
   LELF         =      F    write electronic localiz. function (ELF)
   LORBIT       =     10    0 simple, 1 ext, 2 COOP (PROOUT), +10 PAW based schemes


 Dipole corrections
   LMONO  =      F    monopole corrections only (constant potential shift)
   LDIPOL =      F    correct potential (dipole corrections)
   IDIPOL =      0    1-x, 2-y, 3-z, 4-all directions 
   EPSILON=  1.0000000 bulk dielectric constant

 Exchange correlation treatment:
   GGA     =    --    GGA type
   LEXCH   =     8    internal setting for exchange type
   VOSKOWN=      0    Vosko Wilk Nusair interpolation
   LHFCALC =     F    Hartree Fock is set to
   LHFONE  =     F    Hartree Fock one center treatment
   AEXX    =    0.0000 exact exchange contribution

 Linear response parameters
   LEPSILON=     F    determine dielectric tensor
   LRPA    =     F    only Hartree local field effects (RPA)
   LNABLA  =     F    use nabla operator in PAW spheres
   LVEL    =     F    velocity operator in full k-point grid
   LINTERFAST=   F  fast interpolation
   KINTER  =     0    interpolate to denser k-point grid
   CSHIFT  =0.1000    complex shift for real part using Kramers Kronig
   OMEGAMAX=  -1.0    maximum frequency
   DEG_THRESHOLD= 0.2000000E-02 threshold for treating states as degnerate
   RTIME   =   -0.100 relaxation time in fs
  (WPLASMAI=    0.000 imaginary part of plasma frequency in eV, 0.658/RTIME)
   DFIELD  = 0.0000000 0.0000000 0.0000000 field for delta impulse in time

 Orbital magnetization related:
   ORBITALMAG=     F  switch on orbital magnetization
   LCHIMAG   =     F  perturbation theory with respect to B field
   DQ        =  0.001000  dq finite difference perturbation B field
   LLRAUG    =     F  two centre corrections for induced B field



--------------------------------------------------------------------------------------------------------


 Static calculation
 charge density and potential will be updated during run
 non-spin polarized calculation
 Variant of blocked Davidson
 Davidson routine will perform the subspace rotation
 perform sub-space diagonalisation
    after iterative eigenvector-optimisation
 modified Broyden-mixing scheme, WC =      100.0
 initial mixing is a Kerker type mixing with AMIX =  0.4000 and BMIX =      1.0000
 Hartree-type preconditioning will be used
 using additional bands           36
 real space projection scheme for non local part
 use partial core corrections
 calculate Harris-corrections to forces   (improved forces if not selfconsistent)
 use gradient corrections 
 use of overlap-Matrix (Vanderbilt PP)
 Gauss-broadening in eV      SIGMA  =   0.01


--------------------------------------------------------------------------------------------------------


  energy-cutoff  :      300.00
  volume of cell :     1600.27
      direct lattice vectors                 reciprocal lattice vectors
     8.420018000  0.000000000  8.077981000     0.059382296 -0.000000000  0.061896655
     0.000000000 11.763808000  0.000000000     0.000000000  0.085006488 -0.000000000
    -8.420018000  0.000000000  8.077981000    -0.059382296  0.000000000  0.061896655

  length of vectors
    11.668353789 11.763808000 11.668353789     0.085775596  0.085006488  0.085775596



 k-points in units of 2pi/SCALE and weight: 1x1x1                                   
   0.00000000  0.00000000  0.00000000       0.125
   0.02969115  0.00000000  0.03094833       0.125
   0.00000000  0.04250324  0.00000000       0.125
   0.02969115  0.04250324  0.03094833       0.125
  -0.02969115  0.00000000  0.03094833       0.125
   0.00000000  0.00000000  0.06189665       0.125
  -0.02969115  0.04250324  0.03094833       0.125
   0.00000000  0.04250324  0.06189665       0.125

 k-points in reciprocal lattice and weights: 1x1x1                                   
   0.00000000  0.00000000  0.00000000       0.125
   0.50000000  0.00000000  0.00000000       0.125
   0.00000000  0.50000000  0.00000000       0.125
   0.50000000  0.50000000  0.00000000       0.125
   0.00000000  0.00000000  0.50000000       0.125
   0.50000000  0.00000000  0.50000000       0.125
   0.00000000  0.50000000  0.50000000       0.125
   0.50000000  0.50000000  0.50000000       0.125

 position of ions in fractional coordinates (direct lattice) 
   0.27044300  0.25000100  0.20015700
   0.77468600  0.25000100  0.71627200
   0.20785300  0.75000000  0.76594600
   0.29248800  0.24999900  0.73340500
   0.79098300  0.24999900  0.22426600
   0.24031800  0.75000100  0.28645100
   0.99776100  0.99627400  0.99861000
   0.50094900  0.00173100  0.49777700
   0.50442500  0.99686500  0.99797900
   0.00143800  0.00090500  0.50038600
   0.50442500  0.50313500  0.99798200
   0.00143400  0.49909300  0.50039200
   0.99776600  0.50371900  0.99860700
   0.50095100  0.49827600  0.49777500
   0.45832600  0.75000300  0.96697500
   0.99113300  0.74999800  0.46375100
   0.97077600  0.24999800  0.97037100
   0.45175200  0.25000100  0.46644200
   0.04880100  0.74999900  0.03190700
   0.51050900  0.75000200  0.52579200
   0.53001100  0.25000100  0.03229600
   0.03216400  0.24999900  0.54400600
   0.24846100  0.46692200  0.94997500
   0.74851200  0.45136300  0.45592600
   0.44405400  0.52215200  0.24611700
   0.94822400  0.53708400  0.74672800
   0.54522300  0.04462700  0.74949300
   0.05165800  0.03713800  0.25134700
   0.75328800  0.97170000  0.05941800
   0.25174300  0.97402700  0.55470100
   0.24846100  0.03308000  0.94997400
   0.74851300  0.04863800  0.45592500
   0.44405300  0.97784900  0.24611700
   0.94822500  0.96291400  0.74672700
   0.75328900  0.52830100  0.05941800
   0.25174400  0.52597300  0.55470000
   0.54522200  0.45537500  0.74949400
   0.05165500  0.46285900  0.25134700
   0.72005700  0.75000000  0.11850600

 position of ions in cartesian coordinates  (Angst):
   0.59180939  2.94096376  3.80149786
   0.49184693  2.94096376 12.04393040
  -4.69915311  8.82285600  7.86632982
  -3.71252908  2.94094024  8.28714416
   4.77176734  2.94094024  8.20116213
  -0.38844069  8.82286776  4.25522997
  -0.00714860 11.71997605 16.12664701
   0.02670830  0.02036315  8.06768965
  -4.15573356 11.72692846 12.13639097
  -4.20115114  0.01064625  4.05372474
  -4.15575882  5.91878354 12.13641520
  -4.20123534  5.87123423  4.05374089
  -0.00708124  5.92565360 16.12666316
   0.02674198  5.86162320  8.06768965
  -4.28283374  8.82289129 11.51355440
   4.44056593  8.82283247 11.75252531
   0.00341011  2.94092847 15.68054858
  -0.12369006  2.94096376  7.41715369
   0.14224778  8.82284424  0.65195769
  -0.12868314  8.82287953  8.37121979
   4.19076926  2.94096376  4.54230526
  -4.30971885  2.94094024  4.65429031
  -5.90676051  5.49278076  9.68094324
   2.46357939  5.30974767  9.72942728
   1.66663310  6.14249587  5.57518822
   1.69659995  6.31815306 13.69179005
  -1.71995708  0.52498346 10.45869125
  -1.68138497  0.43688430  2.44766863
   5.84239789 11.43089223  6.56502363
  -2.55091181 11.45826661  6.51443931
  -5.90675209  0.38914677  9.68093516
   2.46359623  0.57216809  9.72942728
   1.66662468 11.50322789  5.57518015
   1.69661679 11.32753542 13.69179005
   5.84240631  6.21483153  6.56503170
  -2.55089497  6.18744539  6.51443931
  -1.71997392  5.35694407 10.45869125
  -1.68141023  5.44498441  2.44764440
   5.06507025  8.82285600  6.77389598



--------------------------------------------------------------------------------------------------------


 k-point  1 :   0.0000 0.0000 0.0000  plane waves:   18901
 k-point  2 :   0.5000 0.0000 0.0000  plane waves:   18892
 k-point  3 :   0.0000 0.5000 0.0000  plane waves:   18858
 k-point  4 :   0.5000 0.5000 0.0000  plane waves:   18900
 k-point  5 :   0.0000 0.0000 0.5000  plane waves:   18892
 k-point  6 :   0.5000 0.0000 0.5000  plane waves:   18810
 k-point  7 :   0.0000 0.5000 0.5000  plane waves:   18900
 k-point  8 :   0.5000 0.5000 0.5000  plane waves:   18888

 maximum and minimum number of plane-waves per node :      2391     2328

 maximum number of plane-waves:     18901
 maximum index in each direction: 
   IXMAX=   16   IYMAX=   16   IZMAX=   16
   IXMIN=  -16   IYMIN=  -17   IZMIN=  -16


 real space projection operators:
  total allocation   :      16491.62 KBytes
  max/ min on nodes  :       2152.88       1788.23


 parallel 3D FFT for wavefunctions:
    minimum data exchange during FFTs selected (reduces bandwidth)
 parallel 3D FFT for charge:
    minimum data exchange during FFTs selected (reduces bandwidth)


 total amount of memory used by VASP MPI-rank0    61023. kBytes
=======================================================================

   base      :      30000. kBytes
   nonlr-proj:       6435. kBytes
   fftplans  :       8423. kBytes
   grid      :       7942. kBytes
   one-center:         77. kBytes
   wavefun   :       8146. kBytes

     INWAV:  cpu time    0.0000: real time    0.0000
 Broyden mixing: mesh for mixing (old mesh)
   NGX = 33   NGY = 33   NGZ = 33
  (NGX  =140   NGY  =140   NGZ  =140)
  gives a total of  35937 points

 initial charge density was supplied:
 charge density of overlapping atoms calculated
 number of electron     343.0000000 magnetization 
 keeping initial charge density in first step


--------------------------------------------------------------------------------------------------------


 Maximum index for non-local projection operator          728
 Maximum index for augmentation-charges         3085 (set IRDMAX)


--------------------------------------------------------------------------------------------------------


 First call to EWALD:  gamma=   0.152
 Maximum number of real-space cells 3x 3x 3
 Maximum number of reciprocal cells 3x 3x 3

    FEWALD:  cpu time    0.0038: real time    0.0038


--------------------------------------- Iteration      1(   1)  ---------------------------------------


    POTLOK:  cpu time    0.2635: real time    0.2842
    SETDIJ:  cpu time    1.2025: real time    1.2025
     EDDAV:  cpu time   16.6578: real time   16.6634
       DOS:  cpu time    0.0008: real time    0.0008
    --------------------------------------------
      LOOP:  cpu time   18.1246: real time   18.1510

 eigenvalue-minimisations  :  3496
 total energy-change (2. order) : 0.1363529E+04  (-0.1106307E+05)
 number of electron     343.0000000 magnetization 
 augmentation part      343.0000000 magnetization 

 Free energy of the ion-electron system (eV)
  ---------------------------------------------------
  alpha Z        PSCENC =       835.99855037
  Ewald energy   TEWEN  =    -17405.72898027
  -Hartree energ DENC   =     -7716.42384156
  -exchange      EXHF   =         0.00000000
  -V(xc)+E(xc)   XCENC  =       905.90502385
  PAW double counting   =     21217.07306836   -22257.58625956
  entropy T*S    EENTRO =        -0.00096357
  eigenvalues    EBANDS =      -240.59124377
  atomic energy  EATOM  =     26024.88362379
  Solvation  Ediel_sol  =         0.00000000
  ---------------------------------------------------
  free energy    TOTEN  =      1363.52897763 eV

  energy without entropy =     1363.52994120  energy(sigma->0) =     1363.52945942


--------------------------------------------------------------------------------------------------------




--------------------------------------- Iteration      1(   2)  ---------------------------------------


     EDDAV:  cpu time   18.4987: real time   18.5564
       DOS:  cpu time    0.0004: real time    0.0004
    --------------------------------------------
      LOOP:  cpu time   18.4991: real time   18.5568

 eigenvalue-minimisations  :  4120
 total energy-change (2. order) :-0.2451428E+04  (-0.2368238E+04)
 number of electron     343.0000000 magnetization 
 augmentation part      343.0000000 magnetization 

 Free energy of the ion-electron system (eV)
  ---------------------------------------------------
  alpha Z        PSCENC =       835.99855037
  Ewald energy   TEWEN  =    -17405.72898027
  -Hartree energ DENC   =     -7716.42384156
  -exchange      EXHF   =         0.00000000
  -V(xc)+E(xc)   XCENC  =       905.90502385
  PAW double counting   =     21217.07306836   -22257.58625956
  entropy T*S    EENTRO =        -0.00000000
  eigenvalues    EBANDS =     -2692.02018885
  atomic energy  EATOM  =     26024.88362379
  Solvation  Ediel_sol  =         0.00000000
  ---------------------------------------------------
  free energy    TOTEN  =     -1087.89900387 eV

  energy without entropy =    -1087.89900387  energy(sigma->0) =    -1087.89900387


--------------------------------------------------------------------------------------------------------




--------------------------------------- Iteration      1(   3)  ---------------------------------------


     EDDAV:  cpu time   19.3113: real time   19.3517
       DOS:  cpu time    0.0004: real time    0.0004
    --------------------------------------------
      LOOP:  cpu time   19.3117: real time   19.3521

 eigenvalue-minimisations  :  4408
 total energy-change (2. order) :-0.3630229E+03  (-0.3609500E+03)
 number of electron     343.0000000 magnetization 
 augmentation part      343.0000000 magnetization 

 Free energy of the ion-electron system (eV)
  ---------------------------------------------------
  alpha Z        PSCENC =       835.99855037
  Ewald energy   TEWEN  =    -17405.72898027
  -Hartree energ DENC   =     -7716.42384156
  -exchange      EXHF   =         0.00000000
  -V(xc)+E(xc)   XCENC  =       905.90502385
  PAW double counting   =     21217.07306836   -22257.58625956
  entropy T*S    EENTRO =        -0.00000000
  eigenvalues    EBANDS =     -3055.04309190
  atomic energy  EATOM  =     26024.88362379
  Solvation  Ediel_sol  =         0.00000000
  ---------------------------------------------------
  free energy    TOTEN  =     -1450.92190693 eV

  energy without entropy =    -1450.92190693  energy(sigma->0) =    -1450.92190693


--------------------------------------------------------------------------------------------------------




--------------------------------------- Iteration      1(   4)  ---------------------------------------


     EDDAV:  cpu time   18.1833: real time   18.1902
       DOS:  cpu time    0.0004: real time    0.0004
    --------------------------------------------
      LOOP:  cpu time   18.1837: real time   18.1905

 eigenvalue-minimisations  :  4000
 total energy-change (2. order) :-0.1244837E+02  (-0.1241287E+02)
 number of electron     343.0000000 magnetization 
 augmentation part      343.0000000 magnetization 

 Free energy of the ion-electron system (eV)
  ---------------------------------------------------
  alpha Z        PSCENC =       835.99855037
  Ewald energy   TEWEN  =    -17405.72898027
  -Hartree energ DENC   =     -7716.42384156
  -exchange      EXHF   =         0.00000000
  -V(xc)+E(xc)   XCENC  =       905.90502385
  PAW double counting   =     21217.07306836   -22257.58625956
  entropy T*S    EENTRO =        -0.00000000
  eigenvalues    EBANDS =     -3067.49145963
  atomic energy  EATOM  =     26024.88362379
  Solvation  Ediel_sol  =         0.00000000
  ---------------------------------------------------
  free energy    TOTEN  =     -1463.37027465 eV

  energy without entropy =    -1463.37027465  energy(sigma->0) =    -1463.37027465


--------------------------------------------------------------------------------------------------------




--------------------------------------- Iteration      1(   5)  ---------------------------------------


     EDDAV:  cpu time   19.3310: real time   19.3619
       DOS:  cpu time    0.0005: real time    0.0005
    CHARGE:  cpu time    2.7051: real time    2.7052
    MIXING:  cpu time    0.0014: real time    0.0014
    --------------------------------------------
      LOOP:  cpu time   22.0380: real time   22.0690

 eigenvalue-minimisations  :  4408
 total energy-change (2. order) :-0.5324085E+00  (-0.5321235E+00)
 number of electron     344.0000002 magnetization 
 augmentation part       -4.6534229 magnetization 

 Broyden mixing:
  rms(total) = 0.11015E+01    rms(broyden)= 0.11009E+01
  rms(prec ) = 0.14827E+01
  weight for this iteration     100.00

 Free energy of the ion-electron system (eV)
  ---------------------------------------------------
  alpha Z        PSCENC =       835.99855037
  Ewald energy   TEWEN  =    -17405.72898027
  -Hartree energ DENC   =     -7716.42384156
  -exchange      EXHF   =         0.00000000
  -V(xc)+E(xc)   XCENC  =       905.90502385
  PAW double counting   =     21217.07306836   -22257.58625956
  entropy T*S    EENTRO =        -0.00000000
  eigenvalues    EBANDS =     -3068.02386812
  atomic energy  EATOM  =     26024.88362379
  Solvation  Ediel_sol  =         0.00000000
  ---------------------------------------------------
  free energy    TOTEN  =     -1463.90268315 eV

  energy without entropy =    -1463.90268315  energy(sigma->0) =    -1463.90268315


--------------------------------------------------------------------------------------------------------




--------------------------------------- Iteration      1(   6)  ---------------------------------------


    POTLOK:  cpu time    0.2699: real time    0.3096
    SETDIJ:  cpu time    1.1966: real time    1.1966
     EDDAV:  cpu time   19.2121: real time   19.2132
       DOS:  cpu time    0.0004: real time    0.0004
    CHARGE:  cpu time    2.6790: real time    2.6792
    MIXING:  cpu time    0.0016: real time    0.0016
    --------------------------------------------
      LOOP:  cpu time   23.3596: real time   23.4006

 eigenvalue-minimisations  :  4392
 total energy-change (2. order) : 0.7910834E+02  (-0.2344393E+01)
 number of electron     344.0000002 magnetization 
 augmentation part       -3.2100770 magnetization 

 Broyden mixing:
  rms(total) = 0.75963E+00    rms(broyden)= 0.75954E+00
  rms(prec ) = 0.92930E+00
  weight for this iteration     100.00

 eigenvalues of (default mixing * dielectric matrix)
  average eigenvalue GAMMA=   1.2848
  1.2848

 Free energy of the ion-electron system (eV)
  ---------------------------------------------------
  alpha Z        PSCENC =       835.99855037
  Ewald energy   TEWEN  =    -17405.72898027
  -Hartree energ DENC   =     -7701.36168663
  -exchange      EXHF   =         0.00000000
  -V(xc)+E(xc)   XCENC  =       939.70299627
  PAW double counting   =     21577.26155851   -22616.39152963
  entropy T*S    EENTRO =        -0.00000000
  eigenvalues    EBANDS =     -3039.15887962
  atomic energy  EATOM  =     26024.88362379
  Solvation  Ediel_sol  =         0.00000000
  ---------------------------------------------------
  free energy    TOTEN  =     -1384.79434721 eV

  energy without entropy =    -1384.79434721  energy(sigma->0) =    -1384.79434721


--------------------------------------------------------------------------------------------------------




--------------------------------------- Iteration      1(   7)  ---------------------------------------


    POTLOK:  cpu time    0.2941: real time    0.3138
    SETDIJ:  cpu time    1.1961: real time    1.1962
     EDDAV:  cpu time   18.5472: real time   18.5484
       DOS:  cpu time    0.0004: real time    0.0004
    CHARGE:  cpu time    2.6745: real time    2.6746
    MIXING:  cpu time    0.0018: real time    0.0018
    --------------------------------------------
      LOOP:  cpu time   22.7142: real time   22.7353

 eigenvalue-minimisations  :  4160
 total energy-change (2. order) : 0.4001077E+00  (-0.9448753E+00)
 number of electron     344.0000002 magnetization 
 augmentation part       -2.5829465 magnetization 

 Broyden mixing:
  rms(total) = 0.37991E+00    rms(broyden)= 0.37989E+00
  rms(prec ) = 0.41472E+00
  weight for this iteration     100.00

 eigenvalues of (default mixing * dielectric matrix)
  average eigenvalue GAMMA=   1.3150
  1.3150  1.3150

 Free energy of the ion-electron system (eV)
  ---------------------------------------------------
  alpha Z        PSCENC =       835.99855037
  Ewald energy   TEWEN  =    -17405.72898027
  -Hartree energ DENC   =     -7744.17802664
  -exchange      EXHF   =         0.00000000
  -V(xc)+E(xc)   XCENC  =       945.30381064
  PAW double counting   =     22303.15710679   -23340.53782447
  entropy T*S    EENTRO =        -0.00000000
  eigenvalues    EBANDS =     -3003.29249969
  atomic energy  EATOM  =     26024.88362379
  Solvation  Ediel_sol  =         0.00000000
  ---------------------------------------------------
  free energy    TOTEN  =     -1384.39423949 eV

  energy without entropy =    -1384.39423949  energy(sigma->0) =    -1384.39423949


--------------------------------------------------------------------------------------------------------




--------------------------------------- Iteration      1(   8)  ---------------------------------------


    POTLOK:  cpu time    0.2613: real time    0.2978
    SETDIJ:  cpu time    1.1958: real time    1.1959
     EDDAV:  cpu time   17.8616: real time   17.8627
       DOS:  cpu time    0.0006: real time    0.0006
    CHARGE:  cpu time    2.6849: real time    2.6851
    MIXING:  cpu time    0.0015: real time    0.0015
    --------------------------------------------
      LOOP:  cpu time   22.0056: real time   22.0435

 eigenvalue-minimisations  :  3928
 total energy-change (2. order) :-0.1847001E+00  (-0.4250491E-01)
 number of electron     344.0000002 magnetization 
 augmentation part       -2.6870910 magnetization 

 Broyden mixing:
  rms(total) = 0.22180E+00    rms(broyden)= 0.22179E+00
  rms(prec ) = 0.24538E+00
  weight for this iteration     100.00

 eigenvalues of (default mixing * dielectric matrix)
  average eigenvalue GAMMA=   1.6901
  1.1195  1.3303  2.6206

 Free energy of the ion-electron system (eV)
  ---------------------------------------------------
  alpha Z        PSCENC =       835.99855037
  Ewald energy   TEWEN  =    -17405.72898027
  -Hartree energ DENC   =     -7747.67309719
  -exchange      EXHF   =         0.00000000
  -V(xc)+E(xc)   XCENC  =       945.86290850
  PAW double counting   =     22550.86130596   -23588.72417340
  entropy T*S    EENTRO =        -0.00000000
  eigenvalues    EBANDS =     -3000.05907731
  atomic energy  EATOM  =     26024.88362379
  Solvation  Ediel_sol  =         0.00000000
  ---------------------------------------------------
  free energy    TOTEN  =     -1384.57893955 eV

  energy without entropy =    -1384.57893955  energy(sigma->0) =    -1384.57893955


--------------------------------------------------------------------------------------------------------




--------------------------------------- Iteration      1(   9)  ---------------------------------------


    POTLOK:  cpu time    0.3154: real time    0.3197
    SETDIJ:  cpu time    1.1958: real time    1.1958
     EDDAV:  cpu time   17.1634: real time   17.1642
       DOS:  cpu time    0.0004: real time    0.0004
    CHARGE:  cpu time    2.6863: real time    2.6865
    MIXING:  cpu time    0.0016: real time    0.0016
    --------------------------------------------
      LOOP:  cpu time   21.3630: real time   21.3684

 eigenvalue-minimisations  :  3680
 total energy-change (2. order) :-0.8332285E-01  (-0.1578964E-01)
 number of electron     344.0000002 magnetization 
 augmentation part       -2.7332373 magnetization 

 Broyden mixing:
  rms(total) = 0.42485E-01    rms(broyden)= 0.42482E-01
  rms(prec ) = 0.48655E-01
  weight for this iteration     100.00

 eigenvalues of (default mixing * dielectric matrix)
  average eigenvalue GAMMA=   1.4691
  2.5408  1.2500  1.2500  0.8358

 Free energy of the ion-electron system (eV)
  ---------------------------------------------------
  alpha Z        PSCENC =       835.99855037
  Ewald energy   TEWEN  =    -17405.72898027
  -Hartree energ DENC   =     -7753.10534605
  -exchange      EXHF   =         0.00000000
  -V(xc)+E(xc)   XCENC  =       947.82452228
  PAW double counting   =     22906.60044983   -23945.41844051
  entropy T*S    EENTRO =        -0.00000000
  eigenvalues    EBANDS =     -2995.71664184
  atomic energy  EATOM  =     26024.88362379
  Solvation  Ediel_sol  =         0.00000000
  ---------------------------------------------------
  free energy    TOTEN  =     -1384.66226240 eV

  energy without entropy =    -1384.66226240  energy(sigma->0) =    -1384.66226240


--------------------------------------------------------------------------------------------------------




--------------------------------------- Iteration      1(  10)  ---------------------------------------


    POTLOK:  cpu time    0.2831: real time    0.3194
    SETDIJ:  cpu time    1.1964: real time    1.1965
     EDDAV:  cpu time   20.0484: real time   20.0495
       DOS:  cpu time    0.0004: real time    0.0004
    CHARGE:  cpu time    2.6811: real time    2.6813
    MIXING:  cpu time    0.0016: real time    0.0016
    --------------------------------------------
      LOOP:  cpu time   24.2111: real time   24.2486

 eigenvalue-minimisations  :  4680
 total energy-change (2. order) :-0.2516808E-02  (-0.1486350E-02)
 number of electron     344.0000002 magnetization 
 augmentation part       -2.7195314 magnetization 

 Broyden mixing:
  rms(total) = 0.27738E-01    rms(broyden)= 0.27737E-01
  rms(prec ) = 0.33142E-01
  weight for this iteration     100.00

 eigenvalues of (default mixing * dielectric matrix)
  average eigenvalue GAMMA=   1.3838
  2.3672  1.3875  1.3875  0.8884  0.8884

 Free energy of the ion-electron system (eV)
  ---------------------------------------------------
  alpha Z        PSCENC =       835.99855037
  Ewald energy   TEWEN  =    -17405.72898027
  -Hartree energ DENC   =     -7751.40553386
  -exchange      EXHF   =         0.00000000
  -V(xc)+E(xc)   XCENC  =       947.68640175
  PAW double counting   =     22876.38340691   -23915.27090257
  entropy T*S    EENTRO =        -0.00000000
  eigenvalues    EBANDS =     -2997.21134531
  atomic energy  EATOM  =     26024.88362379
  Solvation  Ediel_sol  =         0.00000000
  ---------------------------------------------------
  free energy    TOTEN  =     -1384.66477921 eV

  energy without entropy =    -1384.66477921  energy(sigma->0) =    -1384.66477921


--------------------------------------------------------------------------------------------------------




--------------------------------------- Iteration      1(  11)  ---------------------------------------


    POTLOK:  cpu time    0.2931: real time    0.3199
    SETDIJ:  cpu time    1.2016: real time    1.2017
     EDDAV:  cpu time   17.5496: real time   17.5506
       DOS:  cpu time    0.0006: real time    0.0006
    CHARGE:  cpu time    2.6908: real time    2.6910
    MIXING:  cpu time    0.0016: real time    0.0016
    --------------------------------------------
      LOOP:  cpu time   21.7373: real time   21.7653

 eigenvalue-minimisations  :  3816
 total energy-change (2. order) :-0.2452052E-02  (-0.2165784E-03)
 number of electron     344.0000002 magnetization 
 augmentation part       -2.7183013 magnetization 

 Broyden mixing:
  rms(total) = 0.11735E-01    rms(broyden)= 0.11734E-01
  rms(prec ) = 0.16395E-01
  weight for this iteration     100.00

 eigenvalues of (default mixing * dielectric matrix)
  average eigenvalue GAMMA=   1.5991
  2.7146  2.7146  1.2083  1.2083  0.8746  0.8746

 Free energy of the ion-electron system (eV)
  ---------------------------------------------------
  alpha Z        PSCENC =       835.99855037
  Ewald energy   TEWEN  =    -17405.72898027
  -Hartree energ DENC   =     -7749.79530265
  -exchange      EXHF   =         0.00000000
  -V(xc)+E(xc)   XCENC  =       947.63902569
  PAW double counting   =     22855.42018452   -23894.50932205
  entropy T*S    EENTRO =        -0.00000000
  eigenvalues    EBANDS =     -2998.57501065
  atomic energy  EATOM  =     26024.88362379
  Solvation  Ediel_sol  =         0.00000000
  ---------------------------------------------------
  free energy    TOTEN  =     -1384.66723126 eV

  energy without entropy =    -1384.66723126  energy(sigma->0) =    -1384.66723126


--------------------------------------------------------------------------------------------------------




--------------------------------------- Iteration      1(  12)  ---------------------------------------


    POTLOK:  cpu time    0.2739: real time    0.3137
    SETDIJ:  cpu time    1.2003: real time    1.2004
     EDDAV:  cpu time   17.2989: real time   17.2999
       DOS:  cpu time    0.0004: real time    0.0004
    CHARGE:  cpu time    2.6871: real time    2.6872
    MIXING:  cpu time    0.0016: real time    0.0016
    --------------------------------------------
      LOOP:  cpu time   21.4623: real time   21.5033

 eigenvalue-minimisations  :  3728
 total energy-change (2. order) :-0.2022661E-02  (-0.2416787E-03)
 number of electron     344.0000002 magnetization 
 augmentation part       -2.7214321 magnetization 

 Broyden mixing:
  rms(total) = 0.62558E-02    rms(broyden)= 0.62549E-02
  rms(prec ) = 0.82860E-02
  weight for this iteration     100.00

 eigenvalues of (default mixing * dielectric matrix)
  average eigenvalue GAMMA=   1.6216
  2.7842  2.7842  1.3978  1.3978  0.9440  1.0217  1.0217

 Free energy of the ion-electron system (eV)
  ---------------------------------------------------
  alpha Z        PSCENC =       835.99855037
  Ewald energy   TEWEN  =    -17405.72898027
  -Hartree energ DENC   =     -7748.87316843
  -exchange      EXHF   =         0.00000000
  -V(xc)+E(xc)   XCENC  =       947.69597282
  PAW double counting   =     22847.85403707   -23887.18589828
  entropy T*S    EENTRO =        -0.00000000
  eigenvalues    EBANDS =     -2999.31339098
  atomic energy  EATOM  =     26024.88362379
  Solvation  Ediel_sol  =         0.00000000
  ---------------------------------------------------
  free energy    TOTEN  =     -1384.66925392 eV

  energy without entropy =    -1384.66925392  energy(sigma->0) =    -1384.66925392


--------------------------------------------------------------------------------------------------------




--------------------------------------- Iteration      1(  13)  ---------------------------------------


    POTLOK:  cpu time    0.2676: real time    0.3166
    SETDIJ:  cpu time    1.2015: real time    1.2016
     EDDAV:  cpu time   19.2523: real time   19.2533
       DOS:  cpu time    0.0006: real time    0.0006
    CHARGE:  cpu time    2.6830: real time    2.6832
    MIXING:  cpu time    0.0019: real time    0.0019
    --------------------------------------------
      LOOP:  cpu time   23.4070: real time   23.4572

 eigenvalue-minimisations  :  4408
 total energy-change (2. order) : 0.2181849E-03  (-0.1003251E-03)
 number of electron     344.0000002 magnetization 
 augmentation part       -2.7224087 magnetization 

 Broyden mixing:
  rms(total) = 0.28323E-02    rms(broyden)= 0.28313E-02
  rms(prec ) = 0.34816E-02
  weight for this iteration     100.00

 eigenvalues of (default mixing * dielectric matrix)
  average eigenvalue GAMMA=   1.5447
  3.0155  2.3327  1.6596  1.2867  1.0949  1.0949  1.0191  0.8545

 Free energy of the ion-electron system (eV)
  ---------------------------------------------------
  alpha Z        PSCENC =       835.99855037
  Ewald energy   TEWEN  =    -17405.72898027
  -Hartree energ DENC   =     -7749.68776467
  -exchange      EXHF   =         0.00000000
  -V(xc)+E(xc)   XCENC  =       947.74844618
  PAW double counting   =     22848.46864873   -23887.77565449
  entropy T*S    EENTRO =        -0.00000000
  eigenvalues    EBANDS =     -2998.57590537
  atomic energy  EATOM  =     26024.88362379
  Solvation  Ediel_sol  =         0.00000000
  ---------------------------------------------------
  free energy    TOTEN  =     -1384.66903573 eV

  energy without entropy =    -1384.66903573  energy(sigma->0) =    -1384.66903573


--------------------------------------------------------------------------------------------------------




--------------------------------------- Iteration      1(  14)  ---------------------------------------


    POTLOK:  cpu time    0.2945: real time    0.3144
    SETDIJ:  cpu time    1.2009: real time    1.2009
     EDDAV:  cpu time   17.5912: real time   17.5922
       DOS:  cpu time    0.0011: real time    0.0010
    CHARGE:  cpu time    2.6839: real time    2.6840
    MIXING:  cpu time    0.0017: real time    0.0017
    --------------------------------------------
      LOOP:  cpu time   21.7733: real time   21.7942

 eigenvalue-minimisations  :  3824
 total energy-change (2. order) : 0.3158349E-04  (-0.1397939E-04)
 number of electron     344.0000002 magnetization 
 augmentation part       -2.7221266 magnetization 

 Broyden mixing:
  rms(total) = 0.19924E-02    rms(broyden)= 0.19912E-02
  rms(prec ) = 0.26142E-02
  weight for this iteration     100.00

 eigenvalues of (default mixing * dielectric matrix)
  average eigenvalue GAMMA=   1.5827
  3.0633  2.3939  2.3939  1.1741  1.1741  0.9080  0.9080  1.1145  1.1145

 Free energy of the ion-electron system (eV)
  ---------------------------------------------------
  alpha Z        PSCENC =       835.99855037
  Ewald energy   TEWEN  =    -17405.72898027
  -Hartree energ DENC   =     -7749.77352773
  -exchange      EXHF   =         0.00000000
  -V(xc)+E(xc)   XCENC  =       947.75270418
  PAW double counting   =     22850.26465555   -23889.56224195
  entropy T*S    EENTRO =        -0.00000000
  eigenvalues    EBANDS =     -2998.50378808
  atomic energy  EATOM  =     26024.88362379
  Solvation  Ediel_sol  =         0.00000000
  ---------------------------------------------------
  free energy    TOTEN  =     -1384.66900415 eV

  energy without entropy =    -1384.66900415  energy(sigma->0) =    -1384.66900415


--------------------------------------------------------------------------------------------------------




--------------------------------------- Iteration      1(  15)  ---------------------------------------


    POTLOK:  cpu time    0.2998: real time    0.3140
    SETDIJ:  cpu time    1.2009: real time    1.2010
     EDDAV:  cpu time   16.8953: real time   16.8961
       DOS:  cpu time    0.0004: real time    0.0004
    CHARGE:  cpu time    2.6844: real time    2.6846
    MIXING:  cpu time    0.0019: real time    0.0019
    --------------------------------------------
      LOOP:  cpu time   21.0828: real time   21.0980

 eigenvalue-minimisations  :  3584
 total energy-change (2. order) :-0.2756633E-05  (-0.2441578E-05)
 number of electron     344.0000002 magnetization 
 augmentation part       -2.7219132 magnetization 

 Broyden mixing:
  rms(total) = 0.11134E-02    rms(broyden)= 0.11115E-02
  rms(prec ) = 0.15349E-02
  weight for this iteration     100.00

 eigenvalues of (default mixing * dielectric matrix)
  average eigenvalue GAMMA=   1.6095
  3.4582  2.3826  2.3826  1.3249  1.3249  1.1903  1.1903  0.8705  0.9853  0.9853

 Free energy of the ion-electron system (eV)
  ---------------------------------------------------
  alpha Z        PSCENC =       835.99855037
  Ewald energy   TEWEN  =    -17405.72898027
  -Hartree energ DENC   =     -7749.89464356
  -exchange      EXHF   =         0.00000000
  -V(xc)+E(xc)   XCENC  =       947.75804697
  PAW double counting   =     22849.92038428   -23889.21214567
  entropy T*S    EENTRO =        -0.00000000
  eigenvalues    EBANDS =     -2998.39384281
  atomic energy  EATOM  =     26024.88362379
  Solvation  Ediel_sol  =         0.00000000
  ---------------------------------------------------
  free energy    TOTEN  =     -1384.66900691 eV

  energy without entropy =    -1384.66900691  energy(sigma->0) =    -1384.66900691


--------------------------------------------------------------------------------------------------------




--------------------------------------- Iteration      1(  16)  ---------------------------------------


    POTLOK:  cpu time    0.3139: real time    0.3168
    SETDIJ:  cpu time    1.1957: real time    1.1958
     EDDAV:  cpu time   17.3320: real time   17.3328
       DOS:  cpu time    0.0005: real time    0.0005
    CHARGE:  cpu time    2.6908: real time    2.6909
    MIXING:  cpu time    0.0018: real time    0.0018
    --------------------------------------------
      LOOP:  cpu time   21.5348: real time   21.5385

 eigenvalue-minimisations  :  3736
 total energy-change (2. order) :-0.6275390E-04  (-0.1723891E-05)
 number of electron     344.0000002 magnetization 
 augmentation part       -2.7215325 magnetization 

 Broyden mixing:
  rms(total) = 0.51721E-03    rms(broyden)= 0.51313E-03
  rms(prec ) = 0.63619E-03
  weight for this iteration     100.00

 eigenvalues of (default mixing * dielectric matrix)
  average eigenvalue GAMMA=   1.6974
  4.0156  2.7030  2.7030  1.7930  1.1297  1.1297  1.1401  1.1401  0.8794  1.0188
  1.0188

 Free energy of the ion-electron system (eV)
  ---------------------------------------------------
  alpha Z        PSCENC =       835.99855037
  Ewald energy   TEWEN  =    -17405.72898027
  -Hartree energ DENC   =     -7749.81712226
  -exchange      EXHF   =         0.00000000
  -V(xc)+E(xc)   XCENC  =       947.75089262
  PAW double counting   =     22849.21521140   -23888.50930425
  entropy T*S    EENTRO =        -0.00000000
  eigenvalues    EBANDS =     -2998.46194105
  atomic energy  EATOM  =     26024.88362379
  Solvation  Ediel_sol  =         0.00000000
  ---------------------------------------------------
  free energy    TOTEN  =     -1384.66906966 eV

  energy without entropy =    -1384.66906966  energy(sigma->0) =    -1384.66906966


--------------------------------------------------------------------------------------------------------




--------------------------------------- Iteration      1(  17)  ---------------------------------------


    POTLOK:  cpu time    0.2501: real time    0.3084
    SETDIJ:  cpu time    1.1953: real time    1.1953
     EDDAV:  cpu time   16.2957: real time   16.2964
       DOS:  cpu time    0.0004: real time    0.0004
    CHARGE:  cpu time    2.6905: real time    2.6907
    MIXING:  cpu time    0.0020: real time    0.0020
    --------------------------------------------
      LOOP:  cpu time   20.4340: real time   20.4932

 eigenvalue-minimisations  :  3360
 total energy-change (2. order) : 0.4474817E-05  (-0.3623174E-06)
 number of electron     344.0000002 magnetization 
 augmentation part       -2.7215001 magnetization 

 Broyden mixing:
  rms(total) = 0.39069E-03    rms(broyden)= 0.38530E-03
  rms(prec ) = 0.43125E-03
  weight for this iteration     100.00

 eigenvalues of (default mixing * dielectric matrix)
  average eigenvalue GAMMA=   1.6580
  4.0813  2.9197  2.5150  1.6372  1.2853  1.2853  1.2501  1.1281  1.1281  0.9807
  0.8428  0.8428

 Free energy of the ion-electron system (eV)
  ---------------------------------------------------
  alpha Z        PSCENC =       835.99855037
  Ewald energy   TEWEN  =    -17405.72898027
  -Hartree energ DENC   =     -7749.82181623
  -exchange      EXHF   =         0.00000000
  -V(xc)+E(xc)   XCENC  =       947.74864415
  PAW double counting   =     22849.51242356   -23888.80155456
  entropy T*S    EENTRO =        -0.00000000
  eigenvalues    EBANDS =     -2998.45995599
  atomic energy  EATOM  =     26024.88362379
  Solvation  Ediel_sol  =         0.00000000
  ---------------------------------------------------
  free energy    TOTEN  =     -1384.66906519 eV

  energy without entropy =    -1384.66906519  energy(sigma->0) =    -1384.66906519


--------------------------------------------------------------------------------------------------------




--------------------------------------- Iteration      1(  18)  ---------------------------------------


    POTLOK:  cpu time    0.3040: real time    0.3117
    SETDIJ:  cpu time    1.1959: real time    1.1959
     EDDAV:  cpu time   13.9141: real time   13.9148
       DOS:  cpu time    0.0006: real time    0.0006
    CHARGE:  cpu time    2.6939: real time    2.6940
    MIXING:  cpu time    0.0019: real time    0.0019
    --------------------------------------------
      LOOP:  cpu time   18.1104: real time   18.1189

 eigenvalue-minimisations  :  2520
 total energy-change (2. order) : 0.2650126E-05  (-0.1637481E-06)
 number of electron     344.0000002 magnetization 
 augmentation part       -2.7215718 magnetization 

 Broyden mixing:
  rms(total) = 0.15739E-03    rms(broyden)= 0.14350E-03
  rms(prec ) = 0.17118E-03
  weight for this iteration     100.00

 eigenvalues of (default mixing * dielectric matrix)
  average eigenvalue GAMMA=   1.6348
  4.3116  2.9175  2.5321  1.9186  1.3295  1.3295  1.1290  1.1290  1.0345  1.0345
  0.8424  0.8721  0.8721

 Free energy of the ion-electron system (eV)
  ---------------------------------------------------
  alpha Z        PSCENC =       835.99855037
  Ewald energy   TEWEN  =    -17405.72898027
  -Hartree energ DENC   =     -7749.82539263
  -exchange      EXHF   =         0.00000000
  -V(xc)+E(xc)   XCENC  =       947.74859340
  PAW double counting   =     22849.51080590   -23888.79920778
  entropy T*S    EENTRO =        -0.00000000
  eigenvalues    EBANDS =     -2998.45705530
  atomic energy  EATOM  =     26024.88362379
  Solvation  Ediel_sol  =         0.00000000
  ---------------------------------------------------
  free energy    TOTEN  =     -1384.66906254 eV

  energy without entropy =    -1384.66906254  energy(sigma->0) =    -1384.66906254


--------------------------------------------------------------------------------------------------------




--------------------------------------- Iteration      1(  19)  ---------------------------------------


    POTLOK:  cpu time    0.2649: real time    0.3208
    SETDIJ:  cpu time    1.1965: real time    1.1965
     EDDAV:  cpu time   12.7430: real time   12.7438
       DOS:  cpu time    0.0004: real time    0.0004
    --------------------------------------------
      LOOP:  cpu time   14.2047: real time   14.2614

 eigenvalue-minimisations  :  2104
 total energy-change (2. order) :-0.1200046E-06  (-0.2869006E-07)
 number of electron     344.0000002 magnetization 
 augmentation part       -2.7215718 magnetization 

 Free energy of the ion-electron system (eV)
  ---------------------------------------------------
  alpha Z        PSCENC =       835.99855037
  Ewald energy   TEWEN  =    -17405.72898027
  -Hartree energ DENC   =     -7749.81981243
  -exchange      EXHF   =         0.00000000
  -V(xc)+E(xc)   XCENC  =       947.74825082
  PAW double counting   =     22849.56977159   -23888.85837435
  entropy T*S    EENTRO =        -0.00000000
  eigenvalues    EBANDS =     -2998.46209217
  atomic energy  EATOM  =     26024.88362379
  Solvation  Ediel_sol  =         0.00000000
  ---------------------------------------------------
  free energy    TOTEN  =     -1384.66906266 eV

  energy without entropy =    -1384.66906266  energy(sigma->0) =    -1384.66906266


--------------------------------------------------------------------------------------------------------




 average (electrostatic) potential at core
  the test charge radii are     1.1312  1.1541  1.0178  1.1312
  (the norm of the test charge is              1.0000)
       1 -55.4249       2 -55.3622       3 -55.4814       4 -55.3435       5 -55.5199
       6 -55.4846       7-102.0504       8-101.7231       9-102.0845      10-101.7613
      11-102.0845      12-101.7613      13-102.0504      14-101.7231      15 -69.4812
      16 -68.9493      17 -69.3065      18 -69.0324      19 -69.5220      20 -68.7155
      21 -69.2935      22 -69.0970      23 -69.2546      24 -68.9554      25 -69.1840
      26 -69.0010      27 -69.0451      28 -69.2005      29 -69.5915      30 -69.0680
      31 -69.2545      32 -68.9553      33 -69.1838      34 -69.0008      35 -69.5914
      36 -69.0679      37 -69.0451      38 -69.2003      39 -55.1262



 E-fermi :   0.3109     XC(G=0):  -7.9105     alpha+bet : -6.8224


 k-point     1 :       0.0000    0.0000    0.0000
  band No.  band energies     occupation 
      1     -21.0561      2.00000
      2     -21.0485      2.00000
      3     -21.0159      2.00000
      4     -21.0110      2.00000
      5     -20.9641      2.00000
      6     -20.8966      2.00000
      7     -20.8816      2.00000
      8     -16.9047      2.00000
      9     -16.8836      2.00000
     10     -16.8635      2.00000
     11     -16.8388      2.00000
     12     -16.8179      2.00000
     13     -16.8053      2.00000
     14     -16.8003      2.00000
     15     -16.7855      2.00000
     16     -16.7626      2.00000
     17     -16.7616      2.00000
     18     -16.7464      2.00000
     19     -16.7459      2.00000
     20     -16.7290      2.00000
     21     -16.7282      2.00000
     22     -16.7279      2.00000
     23     -16.7267      2.00000
     24     -16.7037      2.00000
     25     -16.7037      2.00000
     26     -16.7017      2.00000
     27     -16.7007      2.00000
     28     -16.5671      2.00000
     29     -16.5422      2.00000
     30     -16.5409      2.00000
     31     -16.5121      2.00000
     32     -16.5118      2.00000
     33     -16.4853      2.00000
     34     -16.4828      2.00000
     35     -16.4506      2.00000
     36     -16.4248      2.00000
     37     -16.4238      2.00000
     38     -16.4225      2.00000
     39     -16.4223      2.00000
     40     -16.4148      2.00000
     41     -16.4136      2.00000
     42     -16.3919      2.00000
     43     -16.3917      2.00000
     44     -16.3812      2.00000
     45     -16.3794      2.00000
     46     -16.3743      2.00000
     47     -16.3730      2.00000
     48     -15.0419      2.00000
     49     -14.7964      2.00000
     50     -14.5589      2.00000
     51     -14.5468      2.00000
     52     -14.4103      2.00000
     53     -14.3624      2.00000
     54     -14.3273      2.00000
     55     -14.3059      2.00000
     56     -14.1911      2.00000
     57     -14.1841      2.00000
     58     -14.1745      2.00000
     59     -14.1473      2.00000
     60     -14.1203      2.00000
     61     -14.1125      2.00000
     62     -14.1092      2.00000
     63     -14.0614      2.00000
     64     -14.0252      2.00000
     65     -14.0152      2.00000
     66     -13.9877      2.00000
     67     -13.9414      2.00000
     68     -13.8342      2.00000
     69     -13.8317      2.00000
     70     -13.7953      2.00000
     71     -13.6194      2.00000
     72      -8.4779      2.00000
     73      -8.0985      2.00000
     74      -8.0082      2.00000
     75      -7.9090      2.00000
     76      -7.7515      2.00000
     77      -7.5787      2.00000
     78      -7.5217      2.00000
     79      -7.4789      2.00000
     80      -7.4500      2.00000
     81      -7.4496      2.00000
     82      -7.4281      2.00000
     83      -7.4255      2.00000
     84      -7.4140      2.00000
     85      -7.4104      2.00000
     86      -7.4021      2.00000
     87      -7.3974      2.00000
     88      -7.3842      2.00000
     89      -7.3781      2.00000
     90      -7.3706      2.00000
     91      -7.3421      2.00000
     92      -7.3225      2.00000
     93      -7.3175      2.00000
     94      -7.3042      2.00000
     95      -7.2906      2.00000
     96      -7.2892      2.00000
     97      -7.2759      2.00000
     98      -7.2626      2.00000
     99      -7.2400      2.00000
    100      -6.7424      2.00000
    101      -3.7029      2.00000
[...]


--------------------------------------------------------------------------------------------------------


 soft charge-density along one line, spin component           1
         0         1         2         3         4         5         6         7         8         9
 total charge-density along one line

 pseudopotential strength for first ion, spin component:           1
 18.041  -4.723   0.000  -0.002  -0.001  -0.000   0.003   0.001
 -4.723   1.245  -0.000   0.000   0.000   0.000  -0.001  -0.000
  0.000  -0.000   2.295   0.000   0.000  -2.751  -0.000  -0.000
 -0.002   0.000   0.000   2.296  -0.001  -0.000  -2.752   0.001
 -0.001   0.000   0.000  -0.001   2.296  -0.000   0.001  -2.752
 -0.000   0.000  -2.751  -0.000  -0.000   3.267   0.000   0.000
  0.003  -0.001  -0.000  -2.752   0.001   0.000   3.270  -0.001
  0.001  -0.000  -0.000   0.001  -2.752   0.000  -0.001   3.269
  0.000  -0.000   0.000  -0.000  -0.000  -0.000   0.000   0.000
  0.000  -0.000  -0.000   0.000  -0.000   0.000  -0.000   0.000
  0.000  -0.000  -0.000  -0.003   0.000   0.000   0.003  -0.000
 -0.001   0.000  -0.000  -0.000  -0.000   0.000   0.001   0.001
  0.001  -0.000  -0.000  -0.000  -0.001   0.000   0.000   0.002
 total augmentation occupancy for first ion, spin component:           1
  1.912  -0.139   0.000  -0.001  -0.000   0.000  -0.001  -0.000   0.000   0.000   0.000  -0.001   0.001
 -0.139   0.132   0.000  -0.007  -0.001   0.000   0.002   0.002  -0.000  -0.000  -0.002   0.005  -0.001
  0.000   0.000   2.015   0.000   0.000   0.003   0.000   0.000   0.001  -0.000  -0.000  -0.000  -0.000
 -0.001  -0.007   0.000   2.018  -0.003   0.000   0.005  -0.002  -0.000   0.000  -0.006   0.000   0.000
 -0.000  -0.001   0.000  -0.003   2.019   0.000  -0.002   0.005  -0.000  -0.000   0.001  -0.000  -0.002
  0.000   0.000   0.003   0.000   0.000   0.010  -0.000  -0.000  -0.001  -0.001  -0.000   0.000   0.000
 -0.001   0.002   0.000   0.005  -0.002  -0.000   0.009   0.001   0.000   0.000   0.003  -0.000   0.000
 -0.000   0.002   0.000  -0.002   0.005  -0.000   0.001   0.010   0.000   0.000  -0.001  -0.001   0.002
  0.000  -0.000   0.001  -0.000  -0.000  -0.001   0.000   0.000   0.007   0.002   0.000  -0.000  -0.000
  0.000  -0.000  -0.000   0.000  -0.000  -0.001   0.000   0.000   0.002   0.006   0.000  -0.000   0.000
  0.000  -0.002  -0.000  -0.006   0.001  -0.000   0.003  -0.001   0.000   0.000   0.006  -0.002  -0.000
 -0.001   0.005  -0.000   0.000  -0.000   0.000  -0.000  -0.001  -0.000  -0.000  -0.002   0.004   0.001
  0.001  -0.001  -0.000   0.000  -0.002   0.000   0.000   0.002  -0.000   0.000  -0.000   0.001   0.005


------------------------ aborting loop because EDIFF is reached ----------------------------------------





 total charge     

# of ion       s       p       d       tot
------------------------------------------
    1        1.787   4.722   0.021   6.530
    2        1.786   4.721   0.021   6.528
    3        1.786   4.721   0.019   6.526
    4        1.787   4.721   0.021   6.530
    5        1.787   4.721   0.021   6.529
    6        1.786   4.721   0.020   6.527
    7        1.555   0.421   9.833  11.809
    8        1.555   0.418   9.834  11.806
    9        1.554   0.424   9.833  11.811
   10        1.555   0.421   9.834  11.809
   11        1.554   0.424   9.833  11.811
   12        1.555   0.421   9.834  11.809
   13        1.555   0.421   9.833  11.809
   14        1.555   0.418   9.834  11.806
   15        1.616   3.293   0.007   4.916
   16        1.615   3.285   0.006   4.906
   17        1.614   3.290   0.006   4.910
   18        1.614   3.292   0.006   4.913
   19        1.615   3.293   0.007   4.915
   20        1.615   3.275   0.006   4.896
   21        1.614   3.289   0.006   4.909
   22        1.614   3.292   0.006   4.913
   23        1.614   3.286   0.006   4.905
   24        1.614   3.286   0.006   4.906
   25        1.614   3.288   0.006   4.909
   26        1.615   3.276   0.006   4.897
   27        1.614   3.285   0.006   4.905
   28        1.614   3.288   0.006   4.908
   29        1.626   3.341   0.016   4.982
   30        1.614   3.289   0.006   4.910
   31        1.614   3.286   0.006   4.905
   32        1.614   3.286   0.006   4.906
   33        1.614   3.288   0.006   4.909
   34        1.615   3.276   0.006   4.897
   35        1.626   3.341   0.016   4.982
   36        1.614   3.289   0.006   4.910
   37        1.614   3.285   0.006   4.905
   38        1.614   3.288   0.006   4.908
   39        1.821   4.739   0.113   6.673
--------------------------------------------------
tot         63.741 115.424  79.069 258.234

    CHARGE:  cpu time    0.3938: real time    0.3938
    FORLOC:  cpu time    0.0121: real time    0.0121
    FORNL :  cpu time    1.8950: real time    1.8953
    STRESS:  cpu time   49.6359: real time   49.6381
    FORCOR:  cpu time    0.2449: real time    0.2449
    FORHAR:  cpu time    0.0287: real time    0.0287
    MIXING:  cpu time    0.0019: real time    0.0019
    OFIELD:  cpu time    0.0000: real time    0.0000

  FORCE on cell =-STRESS in cart. coord.  units (eV):
  Direction    XX          YY          ZZ          XY          YZ          ZX
  --------------------------------------------------------------------------------------
  Alpha Z   835.99855   835.99855   835.99855
  Ewald   -5931.23335 -5449.04950 -6025.52440     0.00566    -0.00668   110.46793
  Hartree  2533.01477  2756.47861  2460.33468     0.00416    -0.00362    66.85004
  E(xc)   -1447.98790 -1447.14772 -1448.02839    -0.00001    -0.00003    -0.02121
  Local   -2992.41740 -3690.27943 -2825.89127    -0.00971     0.01038  -175.58522
  n-local  1794.94508  1797.04175  1794.27324    -0.00006    -0.00011    -0.45756
  augment   824.99561   824.46282   824.27127    -0.00002     0.00002    -0.19424
  Kinetic  4387.78490  4398.78341  4389.92075    -0.00007    -0.00005    -0.35236
  Fock        0.00000     0.00000     0.00000     0.00000     0.00000     0.00000
  -------------------------------------------------------------------------------------
  Total       5.10026    26.28847     5.35442    -0.00006    -0.00008     0.70738
  in kB       5.10633    26.31977     5.36079    -0.00006    -0.00008     0.70822
  external pressure =       12.26 kB  Pullay stress =        0.00 kB


 VOLUME and BASIS-vectors are now :
 -----------------------------------------------------------------------------
  energy-cutoff  :      300.00
  volume of cell :     1600.27
      direct lattice vectors                 reciprocal lattice vectors
     8.420018000  0.000000000  8.077981000     0.059382296 -0.000000000  0.061896655
     0.000000000 11.763808000  0.000000000     0.000000000  0.085006488 -0.000000000
    -8.420018000  0.000000000  8.077981000    -0.059382296  0.000000000  0.061896655

  length of vectors
    11.668353789 11.763808000 11.668353789     0.085775596  0.085006488  0.085775596


 FORCES acting on ions
    electron-ion (+dipol)            ewald-force                    non-local-force                 convergence-correction
 -----------------------------------------------------------------------------------------------
   0.307E+02 0.565E-03 -.140E+02   -.306E+02 -.575E-03 0.142E+02   -.725E-01 -.108E-05 -.166E+00   0.353E-03 -.226E-05 -.241E-03
   0.270E+02 0.225E-02 -.602E+01   -.267E+02 -.227E-02 0.584E+01   -.197E+00 0.783E-05 0.131E+00   -.324E-03 -.110E-05 0.207E-03
   -.283E+02 0.412E-03 -.342E+01   0.284E+02 -.378E-03 0.322E+01   -.599E-02 -.279E-04 0.107E+00   -.250E-03 0.667E-06 0.118E-03
   0.255E+02 -.309E-02 0.128E+02   -.252E+02 0.308E-02 -.129E+02   -.266E+00 0.381E-04 0.592E-01   -.129E-03 -.179E-05 0.301E-03
   0.363E+02 -.174E-02 0.437E+01   -.364E+02 0.176E-02 -.425E+01   0.593E-01 0.976E-05 -.432E-01   0.327E-03 -.264E-06 -.259E-03
   -.152E+02 0.352E-02 0.227E+01   0.150E+02 -.351E-02 -.210E+01   0.142E+00 -.238E-04 -.639E-01   0.129E-03 0.115E-05 -.104E-03
   -.572E+00 0.270E+02 0.423E+02   0.541E+00 -.268E+02 -.422E+02   0.360E+00 -.180E-01 -.351E-01   -.306E-03 -.576E-03 -.427E-03
   -.462E+02 0.753E+02 -.602E+02   0.464E+02 -.756E+02 0.604E+02   -.200E+00 0.114E+00 -.485E-01   0.177E-04 -.222E-03 0.290E-03
   -.458E+02 0.305E+02 0.705E+01   0.459E+02 -.304E+02 -.712E+01   -.240E+00 0.254E+00 -.276E+00   0.642E-03 -.616E-03 0.152E-03
   0.439E+02 0.513E+02 0.438E+02   -.440E+02 -.514E+02 -.447E+02   -.273E-01 -.465E-01 0.872E+00   -.564E-04 -.640E-04 -.188E-03
   -.458E+02 -.305E+02 0.706E+01   0.459E+02 0.305E+02 -.712E+01   -.240E+00 -.255E+00 -.275E+00   0.640E-03 0.625E-03 0.154E-03
   0.438E+02 -.513E+02 0.438E+02   -.440E+02 0.514E+02 -.447E+02   -.283E-01 0.468E-01 0.872E+00   -.550E-04 0.661E-04 -.188E-03
   -.561E+00 -.270E+02 0.423E+02   0.529E+00 0.268E+02 -.422E+02   0.361E+00 0.172E-01 -.347E-01   -.294E-03 0.571E-03 -.428E-03
   -.462E+02 -.753E+02 -.602E+02   0.464E+02 0.756E+02 0.604E+02   -.200E+00 -.114E+00 -.486E-01   0.231E-04 0.226E-03 0.292E-03
   -.262E+02 0.911E-02 0.528E+02   0.260E+02 -.927E-02 -.533E+02   0.114E+00 0.406E-04 0.308E+00   0.478E-03 -.403E-05 0.262E-03
   0.453E+02 -.156E-02 0.690E+02   -.454E+02 0.161E-02 -.693E+02   0.943E-01 0.714E-05 0.214E+00   -.115E-03 0.576E-06 -.505E-04
   -.120E+02 0.323E-02 0.403E+02   0.122E+02 -.327E-02 -.405E+02   -.159E+00 0.647E-04 0.209E+00   0.246E-04 -.386E-05 -.193E-04
   -.117E+02 -.634E-02 0.299E+02   0.117E+02 0.644E-02 -.302E+02   0.404E-02 -.443E-04 0.285E+00   0.445E-04 -.413E-05 0.927E-04
   0.382E+01 0.500E-02 -.220E+02   -.369E+01 -.508E-02 0.224E+02   -.249E+00 0.264E-04 -.438E+00   -.176E-03 0.177E-05 -.498E-03
   -.234E+02 -.234E-02 -.851E+02   0.232E+02 0.238E-02 0.854E+02   0.191E+00 -.715E-04 -.403E+00   -.932E-04 0.125E-05 0.335E-03
   -.166E+02 0.260E-02 -.366E+02   0.167E+02 -.268E-02 0.368E+02   -.558E-01 0.118E-03 -.200E+00   0.220E-03 -.682E-06 -.122E-03
   0.941E+00 0.543E-03 -.294E+02   -.902E+00 -.537E-03 0.297E+02   -.106E-01 -.102E-04 -.282E+00   -.604E-04 -.193E-05 -.111E-04
   -.233E+02 0.705E+01 0.276E+02   0.235E+02 -.723E+01 -.278E+02   -.214E+00 0.206E+00 0.253E+00   -.457E-04 0.989E-04 0.634E-04
   -.111E+02 -.286E+02 0.205E+02   0.113E+02 0.285E+02 -.207E+02   -.148E+00 0.135E+00 0.973E-01   -.742E-04 0.217E-03 0.599E-04
   0.155E+02 -.319E+02 -.187E+01   -.157E+02 0.320E+02 0.162E+01   0.352E+00 -.673E-01 0.152E+00   0.321E-03 0.451E-04 -.619E-04
   0.517E+02 -.639E+02 0.638E+02   -.520E+02 0.643E+02 -.643E+02   0.251E+00 -.412E+00 0.548E+00   -.507E-03 0.274E-03 0.823E-04
   -.442E+02 0.255E+02 -.406E+02   0.444E+02 -.254E+02 0.408E+02   -.356E+00 -.158E+00 -.133E+00   -.113E-03 -.363E-03 0.373E-03
   -.469E+01 -.601E+01 -.229E+02   0.490E+01 0.620E+01 0.232E+02   -.133E+00 -.186E+00 -.289E+00   0.719E-04 -.174E-03 -.282E-03
   0.488E+01 -.107E+02 -.153E+02   -.479E+01 0.116E+02 0.156E+02   0.107E+01 0.276E+01 -.517E+00   0.348E-03 -.461E-03 -.376E-03
   0.172E+02 0.272E+02 -.313E+02   -.174E+02 -.273E+02 0.317E+02   0.156E+00 0.169E+00 -.310E+00   -.155E-04 0.482E-04 0.717E-04
   -.233E+02 -.705E+01 0.276E+02   0.235E+02 0.723E+01 -.278E+02   -.214E+00 -.207E+00 0.253E+00   -.483E-04 -.976E-04 0.623E-04
   -.111E+02 0.286E+02 0.205E+02   0.113E+02 -.285E+02 -.207E+02   -.148E+00 -.135E+00 0.973E-01   -.770E-04 -.215E-03 0.599E-04
   0.155E+02 0.319E+02 -.187E+01   -.157E+02 -.320E+02 0.163E+01   0.352E+00 0.673E-01 0.152E+00   0.317E-03 -.417E-04 -.616E-04
   0.517E+02 0.639E+02 0.638E+02   -.520E+02 -.643E+02 -.643E+02   0.251E+00 0.412E+00 0.548E+00   -.507E-03 -.273E-03 0.827E-04
   0.488E+01 0.107E+02 -.153E+02   -.479E+01 -.116E+02 0.156E+02   0.107E+01 -.276E+01 -.517E+00   0.345E-03 0.461E-03 -.377E-03
   0.172E+02 -.272E+02 -.313E+02   -.174E+02 0.273E+02 0.317E+02   0.156E+00 -.169E+00 -.310E+00   -.192E-04 -.475E-04 0.705E-04
   -.442E+02 -.255E+02 -.406E+02   0.444E+02 0.254E+02 0.408E+02   -.356E+00 0.158E+00 -.133E+00   -.114E-03 0.363E-03 0.375E-03
   -.469E+01 0.601E+01 -.229E+02   0.490E+01 -.620E+01 0.232E+02   -.133E+00 0.186E+00 -.289E+00   0.689E-04 0.172E-03 -.281E-03
   0.490E+02 0.115E-02 -.817E+02   -.504E+02 -.114E-02 0.821E+02   -.132E+01 0.715E-04 0.715E+00   0.536E-03 -.530E-06 -.529E-03
 -----------------------------------------------------------------------------------------------
   -.121E+00 0.757E-03 -.956E+00   -.142E-12 0.889E-13 0.995E-13   0.845E-02 -.706E-03 0.106E+01   0.153E-02 0.250E-05 -.997E-03


 POSITION                                       TOTAL-FORCE (eV/Angst)
 -----------------------------------------------------------------------------------
      0.59181      2.94096      3.80150        -0.015801     -0.000024      0.028181
      0.49185      2.94096     12.04393         0.058310     -0.000025     -0.055422
     -4.69915      8.82286      7.86633         0.064450      0.000006     -0.117183
     -3.71253      2.94094      8.28714         0.058081      0.000034     -0.043164
      4.77177      2.94094      8.20116        -0.047776      0.000033      0.074153
     -0.38844      8.82287      4.25523        -0.065465     -0.000024      0.109851
     -0.00715     11.71998     16.12665         0.340242      0.207077      0.029155
      0.02671      0.02036      8.06769         0.005195     -0.183995      0.154362
     -4.15573     11.72693     12.13639        -0.108497      0.319554     -0.374408
     -4.20115      0.01065      4.05372        -0.155183     -0.090045     -0.036126
     -4.15576      5.91878     12.13642        -0.108299     -0.319502     -0.374341
     -4.20124      5.87123      4.05374        -0.154759      0.090057     -0.036181
     -0.00708      5.92565     16.12666         0.339944     -0.207094      0.029282
      0.02674      5.86162      8.06769         0.005031      0.184013      0.154389
     -4.28283      8.82289     11.51355        -0.019929     -0.000077     -0.106574
      4.44057      8.82283     11.75253         0.041262      0.000026     -0.057318
      0.00341      2.94093     15.68055        -0.005311      0.000006      0.024662
     -0.12369      2.94096      7.41715        -0.005066      0.000045     -0.042021
      0.14225      8.82284      0.65196        -0.123390     -0.000053     -0.024138
     -0.12868      8.82288      8.37122         0.029080     -0.000014     -0.077967
      4.19077      2.94096      4.54231         0.006722      0.000058      0.005431
     -4.30972      2.94094      4.65429         0.021185     -0.000016      0.018637
     -5.90676      5.49278      9.68094        -0.003266      0.029103      0.032569
      2.46358      5.30975      9.72943         0.022885     -0.040909     -0.028376
      1.66663      6.14250      5.57519         0.138633      0.015004     -0.088912
      1.69660      6.31815     13.69179        -0.081686     -0.028660      0.131001
     -1.71996      0.52498     10.45869        -0.134798      0.009726      0.073802
     -1.68138      0.43688      2.44767         0.058037     -0.013974     -0.069658
      5.84240     11.43089      6.56502         1.170839      3.677650     -0.255493
     -2.55091     11.45827      6.51444         0.007313      0.003826     -0.012648
     -5.90675      0.38915      9.68094        -0.003315     -0.029132      0.032580
      2.46360      0.57217      9.72943         0.022833      0.040886     -0.028388
      1.66662     11.50323      5.57518         0.138664     -0.014984     -0.088900
      1.69662     11.32754     13.69179        -0.081703      0.028680      0.131041
      5.84241      6.21483      6.56503         1.170899     -3.677777     -0.255524
     -2.55089      6.18745      6.51444         0.007279     -0.003833     -0.012689
     -1.71997      5.35694     10.45869        -0.134803     -0.009715      0.073772
     -1.68141      5.44498      2.44764         0.058019      0.014006     -0.069637
      5.06507      8.82286      6.77390        -2.515853      0.000062      1.152202
 -----------------------------------------------------------------------------------
    total drift:                               -0.111197      0.000053      0.102037


--------------------------------------------------------------------------------------------------------



  FREE ENERGIE OF THE ION-ELECTRON SYSTEM (eV)
  ---------------------------------------------------
  free  energy   TOTEN  =     -1384.66906266 eV

  energy  without entropy=    -1384.66906266  energy(sigma->0) =    -1384.66906266



--------------------------------------------------------------------------------------------------------


    POTLOK:  cpu time    1.4301: real time    1.4302


--------------------------------------------------------------------------------------------------------


 stress matrix after NEB project (eV)
      5.10026     -0.00006      0.70738
     -0.00006     26.28847     -0.00008
      0.70729     -0.00008      5.35442
  FORCES: max atom, RMS     3.868118    0.998279
  FORCE total and by dimension    6.234252    3.677777
  Stress total and by dimension   27.327035   26.288472
     LOOP+:  cpu time  448.5134: real time  449.1410
    4ORBIT:  cpu time    0.0000: real time    0.0000



 total charge     

# of ion       s       p       d       tot
------------------------------------------
    1        1.787   4.722   0.021   6.530
    2        1.786   4.721   0.021   6.528
    3        1.786   4.721   0.019   6.526
    4        1.787   4.721   0.021   6.530
    5        1.787   4.721   0.021   6.529
    6        1.786   4.721   0.020   6.527
    7        1.555   0.421   9.833  11.809
    8        1.555   0.418   9.834  11.806
    9        1.554   0.424   9.833  11.811
   10        1.555   0.421   9.834  11.809
   11        1.554   0.424   9.833  11.811
   12        1.555   0.421   9.834  11.809
   13        1.555   0.421   9.833  11.809
   14        1.555   0.418   9.834  11.806
   15        1.616   3.293   0.007   4.916
   16        1.615   3.285   0.006   4.906
   17        1.614   3.290   0.006   4.910
   18        1.614   3.292   0.006   4.913
   19        1.615   3.293   0.007   4.915
   20        1.615   3.275   0.006   4.896
   21        1.614   3.289   0.006   4.909
   22        1.614   3.292   0.006   4.913
   23        1.614   3.286   0.006   4.905
   24        1.614   3.286   0.006   4.906
   25        1.614   3.288   0.006   4.909
   26        1.615   3.276   0.006   4.897
   27        1.614   3.285   0.006   4.905
   28        1.614   3.288   0.006   4.908
   29        1.626   3.341   0.016   4.982
   30        1.614   3.289   0.006   4.910
   31        1.614   3.286   0.006   4.905
   32        1.614   3.286   0.006   4.906
   33        1.614   3.288   0.006   4.909
   34        1.615   3.276   0.006   4.897
   35        1.626   3.341   0.016   4.982
   36        1.614   3.289   0.006   4.910
   37        1.614   3.285   0.006   4.905
   38        1.614   3.288   0.006   4.908
   39        1.821   4.739   0.113   6.673
--------------------------------------------------
tot         63.741 115.424  79.069 258.234


 total amount of memory used by VASP MPI-rank0    61023. kBytes
=======================================================================

   base      :      30000. kBytes
   nonlr-proj:       6435. kBytes
   fftplans  :       8423. kBytes
   grid      :       7942. kBytes
   one-center:         77. kBytes
   wavefun   :       8146. kBytes

  
  
 General timing and accounting informations for this job:
 ========================================================
  
                  Total CPU time used (sec):      461.063
                            User time (sec):      459.579
                          System time (sec):        1.484
                         Elapsed time (sec):      462.400
  
                   Maximum memory used (kb):       78392.
                   Average memory used (kb):           0.
  
                          Minor page faults:        20935
                          Major page faults:            1
                 Voluntary context switches:         1632
