 vasp.5.4.4.18Apr17-6-g9f103f2a35 (build Jun 22 2020 09:27:21) complex           
 executed on tx2_gcc-7.3_libsci-1 date 2021.10.12  01:33:33
 running on   64 total cores
 distrk:  each k-point on   64 cores,    1 groups
 distr:  one band on NCORES_PER_BAND=   8 cores,    8 groups


--------------------------------------------------------------------------------------------------------


 INCAR:
 POTCAR:    PAW_PBE Cs_sv 08Apr2002               
 POTCAR:    PAW_PBE Pb_d 06Sep2000                
 POTCAR:    PAW_PBE Br 06Sep2000                  
 POTCAR:    PAW_PBE Cs_sv 08Apr2002               
   SHA256 =  c1463496f0f6037ed62c6012a8013a89ee9ad6ffb38599dcd6c079e7ed31779b Cs
   COPYR  = (c) Copyright 08Apr2002 Georg Kresse                                
   COPYR  = This file is part of the software VASP. Any use, copying, and all ot
   COPYR  = If you do not have a valid VASP license, you may not use, copy or di
   VRHFIN =Cs: 5s5p6s                                                           
   LEXCH  = PE                                                                  
   EATOM  =   555.6835 eV,   40.8416 Ry                                         
                                                                                
   TITEL  = PAW_PBE Cs_sv 08Apr2002                                             
   LULTRA =        F    use ultrasoft PP ?                                      
   IUNSCR =        1    unscreen: 0-lin 1-nonlin 2-no                           
   RPACOR =    2.200    partial core radius                                     
   POMASS =  132.900; ZVAL   =    9.000    mass and valenz                      
   RCORE  =    2.500    outmost cutoff radius                                   
   RWIGS  =    2.500; RWIGS  =    1.323    wigner-seitz radius (au A)           
   ENMAX  =  220.318; ENMIN  =  165.238 eV                                      
   RCLOC  =    2.207    cutoff for local pot                                    
   LCOR   =        T    correct aug charges                                     
   LPAW   =        T    paw PP                                                  
   EAUG   =  407.933                                                            
   DEXC   =    0.000                                                            
   RMAX   =    2.554    core radius for proj-oper                               
   RAUG   =    1.300    factor for augmentation sphere                          
   RDEP   =    2.590    radius for radial grids                                 
   RDEPT  =    2.117    core radius for aug-charge                              
                                                                                
   Atomic configuration                                                         
   13 entries                                                                   
     n  l   j            E        occ.                                          
     1  0  0.50    -35790.1377   2.0000                                         
     2  0  0.50     -5613.6201   2.0000                                         
     2  1  1.50     -5035.0101   6.0000                                         
     3  0  0.50     -1167.0767   2.0000                                         
     3  1  1.50      -980.9754   6.0000                                         
     3  2  2.50      -708.0703  10.0000                                         
     4  0  0.50      -220.2386   2.0000                                         
     4  1  1.50      -160.7596   6.0000                                         
     4  2  2.50       -74.2354  10.0000                                         
     5  0  0.50       -26.7287   2.0000                                         
     6  0  0.50        -2.0862   1.0000                                         
     5  1  1.50       -13.5159   6.0000                                         
     5  2  2.50        -0.4136   0.0000                                         
   Description                                                                  
     l       E           TYP  RCUT    TYP  RCUT                                 
     0    -26.7287425     23  1.900                                             
     0     -2.0862306     23  1.900                                             
     1    -13.5158719     23  2.500                                             
     1     -2.7211652     23  2.500                                             
     2     -0.4136171     23  2.500                                             
  local pseudopotential read in
  partial core-charges read in
  partial kinetic energy density read in
  atomic valenz-charges read in
  non local Contribution for L=           0  read in
    real space projection operators read in
  non local Contribution for L=           0  read in
    real space projection operators read in
  non local Contribution for L=           1  read in
    real space projection operators read in
  non local Contribution for L=           1  read in
    real space projection operators read in
  non local Contribution for L=           2  read in
    real space projection operators read in
    PAW grid and wavefunctions read in

   number of l-projection  operators is LMAX  =           5
   number of lm-projection operators is LMMAX =          13

 POTCAR:    PAW_PBE Pb_d 06Sep2000                
   SHA256 =  fb885b08f0fba73a15f6a6b0e39bd200c13ec96ef97cf3ecd8e63bade5137abd Pb
   COPYR  = (c) Copyright 06Sep2000 Georg Kresse                                
   COPYR  = This file is part of the software VASP. Any use, copying, and all ot
   COPYR  = If you do not have a valid VASP license, you may not use, copy or di
   VRHFIN =Pb:                                                                  
   LEXCH  = PE                                                                  
   EATOM  =  1661.6185 eV,  122.1255 Ry                                         
                                                                                
   TITEL  = PAW_PBE Pb_d 06Sep2000                                              
   LULTRA =        F    use ultrasoft PP ?                                      
   IUNSCR =        1    unscreen: 0-lin 1-nonlin 2-no                           
   RPACOR =    2.200    partial core radius                                     
   POMASS =  207.200; ZVAL   =   14.000    mass and valenz                      
   RCORE  =    2.500    outmost cutoff radius                                   
   RWIGS  =    3.260; RWIGS  =    1.725    wigner-seitz radius (au A)           
   ENMAX  =  237.835; ENMIN  =  178.376 eV                                      
   ICORE  =        3    local potential                                         
   LCOR   =        T    correct aug charges                                     
   LPAW   =        T    paw PP                                                  
   EAUG   =  391.914                                                            
   DEXC   =    0.000                                                            
   RMAX   =    2.565    core radius for proj-oper                               
   RAUG   =    1.300    factor for augmentation sphere                          
   RDEP   =    2.643    radius for radial grids                                 
   RDEPT  =    2.092    core radius for aug-charge                              
                                                                                
   Atomic configuration                                                         
   16 entries                                                                   
     n  l   j            E        occ.                                          
     1  0  0.50    -88091.8466   2.0000                                         
     2  0  0.50    -15753.4197   2.0000                                         
     2  1  1.50    -13508.1797   6.0000                                         
     3  0  0.50     -3781.7194   2.0000                                         
     3  1  1.50     -3138.2529   6.0000                                         
     3  2  2.50     -2483.2977  10.0000                                         
     4  0  0.50      -856.2895   2.0000                                         
     4  1  1.50      -645.4942   6.0000                                         
     4  2  2.50      -401.8768  10.0000                                         
     4  3  3.50      -132.9059  14.0000                                         
     5  0  0.50      -144.0950   2.0000                                         
     5  1  1.50       -85.7879   6.0000                                         
     5  2  2.50       -21.1769  10.0000                                         
     6  0  0.50       -12.0372   2.0000                                         
     6  1  1.50        -3.4971   2.0000                                         
     5  3  2.50        -2.7212   0.0000                                         
   Description                                                                  
     l       E           TYP  RCUT    TYP  RCUT                                 
     2    -21.1768523     23  2.500                                             
     2      1.3605826     23  2.500                                             
     0    -12.0371562     23  2.500                                             
     0     13.6058260     23  2.500                                             
     1     -3.4971339     23  2.500                                             
     1     13.6058260     23  2.500                                             
     3     -1.3605826      7  2.500                                             
  local pseudopotential read in
  partial core-charges read in
  partial kinetic energy density read in
  atomic valenz-charges read in
  non local Contribution for L=           2  read in
    real space projection operators read in
  non local Contribution for L=           2  read in
    real space projection operators read in
  non local Contribution for L=           0  read in
    real space projection operators read in
  non local Contribution for L=           0  read in
    real space projection operators read in
  non local Contribution for L=           1  read in
    real space projection operators read in
  non local Contribution for L=           1  read in
    real space projection operators read in
    PAW grid and wavefunctions read in

   number of l-projection  operators is LMAX  =           6
   number of lm-projection operators is LMMAX =          18

 POTCAR:    PAW_PBE Br 06Sep2000                  
   SHA256 =  96a73d2954943bbee26f4990d676cc6c3bf44b8dd2c75cd4b3b825d8403f0103 Br
   COPYR  = (c) Copyright 06Sep2000 Georg Kresse                                
   COPYR  = This file is part of the software VASP. Any use, copying, and all ot
   COPYR  = If you do not have a valid VASP license, you may not use, copy or di
   VRHFIN =Br: s2p5                                                             
   LEXCH  = PE                                                                  
   EATOM  =   368.4488 eV,   27.0802 Ry                                         
                                                                                
   TITEL  = PAW_PBE Br 06Sep2000                                                
   LULTRA =        F    use ultrasoft PP ?                                      
   IUNSCR =        1    unscreen: 0-lin 1-nonlin 2-no                           
   RPACOR =    1.900    partial core radius                                     
   POMASS =   79.904; ZVAL   =    7.000    mass and valenz                      
   RCORE  =    2.100    outmost cutoff radius                                   
   RWIGS  =    2.200; RWIGS  =    1.164    wigner-seitz radius (au A)           
   ENMAX  =  216.285; ENMIN  =  162.214 eV                                      
   ICORE  =        3    local potential                                         
   LCOR   =        T    correct aug charges                                     
   LPAW   =        T    paw PP                                                  
   EAUG   =  503.852                                                            
   DEXC   =    0.000                                                            
   RMAX   =    2.139    core radius for proj-oper                               
   RAUG   =    1.300    factor for augmentation sphere                          
   RDEP   =    2.186    radius for radial grids                                 
   RDEPT  =    1.890    core radius for aug-charge                              
                                                                                
   Atomic configuration                                                         
   10 entries                                                                   
     n  l   j            E        occ.                                          
     1  0  0.50    -13316.2796   2.0000                                         
     2  0  0.50     -1732.8239   2.0000                                         
     2  1  1.50     -1528.2193   6.0000                                         
     3  0  0.50      -238.0460   2.0000                                         
     3  1  1.50      -173.4609   6.0000                                         
     3  2  2.50       -66.7132  10.0000                                         
     4  0  0.50       -20.1334   2.0000                                         
     4  1  0.50        -7.8591   5.0000                                         
     4  2  2.50        -8.1635   0.0000                                         
     4  3  2.50        -8.1635   0.0000                                         
   Description                                                                  
     l       E           TYP  RCUT    TYP  RCUT                                 
     0    -20.1333652     23  2.100                                             
     0    -21.4939478     23  2.100                                             
     1     -7.8591052     23  2.100                                             
     1     -3.1608434     23  2.100                                             
     2     -8.1634956     23  2.100                                             
     3     -1.3605826      7  2.100                                             
  local pseudopotential read in
  partial core-charges read in
  partial kinetic energy density read in
  atomic valenz-charges read in
  non local Contribution for L=           0  read in
    real space projection operators read in
  non local Contribution for L=           0  read in
    real space projection operators read in
  non local Contribution for L=           1  read in
    real space projection operators read in
  non local Contribution for L=           1  read in
    real space projection operators read in
  non local Contribution for L=           2  read in
    real space projection operators read in
    PAW grid and wavefunctions read in

   number of l-projection  operators is LMAX  =           5
   number of lm-projection operators is LMMAX =          13

 Optimization of the real space projectors (new method)

 maximal supplied QI-value         = 15.12
 optimisation between [QCUT,QGAM] = [  8.77, 17.69] = [ 21.53, 87.61] Ry 
 Optimized for a Real-space Cutoff    1.85 Angstroem

   l    n(q)    QCUT    max X(q) W(low)/X(q) W(high)/X(q)  e(spline) 
   0     10     8.768    25.322    0.81E-04    0.51E-04    0.48E-06
   0     10     8.768    99.187    0.78E-04    0.50E-04    0.47E-06
   1      9     8.768    11.761    0.21E-03    0.20E-03    0.37E-06
   1      9     8.768     8.275    0.24E-03    0.22E-03    0.41E-06
   2      9     8.768     3.829    0.23E-04    0.15E-03    0.18E-06
 Optimization of the real space projectors (new method)

 maximal supplied QI-value         = 15.12
 optimisation between [QCUT,QGAM] = [  8.77, 17.69] = [ 21.53, 87.61] Ry 
 Optimized for a Real-space Cutoff    1.59 Angstroem

   l    n(q)    QCUT    max X(q) W(low)/X(q) W(high)/X(q)  e(spline) 
   2      7     8.768     3.846    0.48E-04    0.11E-03    0.11E-06
   2      7     8.768     8.593    0.20E-03    0.22E-04    0.24E-06
   0      8     8.768    20.082    0.68E-04    0.88E-04    0.41E-07
   0      8     8.768     8.597    0.89E-04    0.13E-03    0.59E-07
   1      8     8.768    33.223    0.15E-03    0.53E-04    0.87E-07
   1      8     8.768    15.899    0.14E-03    0.44E-04    0.78E-07
 Optimization of the real space projectors (new method)

 maximal supplied QI-value         = 17.95
 optimisation between [QCUT,QGAM] = [  8.80, 17.59] = [ 21.67, 86.68] Ry 
 Optimized for a Real-space Cutoff    1.59 Angstroem

   l    n(q)    QCUT    max X(q) W(low)/X(q) W(high)/X(q)  e(spline) 
   0      8     8.797   175.082    0.82E-04    0.14E-03    0.89E-07
   0      8     8.797   174.004    0.79E-04    0.14E-03    0.86E-07
   1      8     8.797    54.315    0.16E-03    0.14E-04    0.30E-06
   1      8     8.797    42.441    0.16E-03    0.14E-04    0.30E-06
   2      7     8.797     3.596    0.92E-04    0.15E-03    0.85E-07
  PAW_PBE Cs_sv 08Apr2002               :
 energy of atom  1       EATOM= -555.6835
 kinetic energy error for atom=    0.0069 (will be added to EATOM!!)
  PAW_PBE Pb_d 06Sep2000                :
 energy of atom  2       EATOM=-1661.6185
 kinetic energy error for atom=    0.0498 (will be added to EATOM!!)
  PAW_PBE Br 06Sep2000                  :
 energy of atom  3       EATOM= -368.4488
 kinetic energy error for atom=    0.0072 (will be added to EATOM!!)


 POSCAR: Cs8 Pb8 Br23                            
  positions in direct lattice
  No initial velocities read in

 METAGGA = SCAN     LMAXTAU =  6    LMIXTAU =  F

 exchange correlation table for  LEXCH =        8
   RHO(1)=    0.500       N(1)  =     2000
   RHO(2)=  100.500       N(2)  =     4000

 VTST: version 3.2, (02/03/18)

 CHAIN: initializing optimizer
 
 OPT: Using VASP Conjugate-Gradient optimizer
 CHAIN: Read ICHAIN            0

 POSCAR: Cs8 Pb8 Br23                            
  positions in direct lattice
  No initial velocities read in



--------------------------------------------------------------------------------------------------------


 ion  position               nearest neighbor table
   1  0.253  0.238  0.195-
   2  0.774  0.244  0.717-
   3  0.764  0.762  0.259-
   4  0.198  0.750  0.772-
   5  0.299  0.251  0.733-
   6  0.785  0.245  0.227-
   7  0.736  0.752  0.806-  26 2.94
   8  0.216  0.754  0.287-
   9  0.998  0.001  0.998-  34 2.95  19 2.96  21 2.98  31 2.99  29 3.00  28 3.02
  10  0.500  0.002  0.488-  20 2.88  32 2.97  33 2.99  27 3.00  30 3.01
  11  0.494  0.001  0.994-  33 2.97  17 2.97  31 2.99  29 2.99  22 3.02  27 3.07
  12  0.005  0.000  0.505-  23 2.96  30 2.98  28 2.98  18 2.99  34 3.00  32 3.06
  13  0.501  0.506  0.003-  37 2.89  35 2.97  17 2.97  22 2.97  24 3.01
  14  0.006  0.494  0.504-  23 2.96  38 2.97  18 2.99  25 3.02  36 3.02
  15  1.000  0.498  0.002-  26 2.47  19 2.95  21 2.97  24 2.99  38 3.02  35 3.03
  16  0.506  0.488  0.507-  39 2.41  25 2.98  20 3.00  36 3.00  37 3.05
  17  0.466  0.752  0.954-  13 2.97  11 2.97
  18  0.980  0.747  0.488-  14 2.99  12 2.99
  19  0.967  0.250  0.977-  15 2.95   9 2.96
  20  0.457  0.242  0.455-  10 2.88  16 3.00
  21  0.018  0.749  0.030-  15 2.97   9 2.98
  22  0.519  0.255  0.033-  13 2.97  11 3.02
  23  0.037  0.247  0.549-  14 2.96  12 2.96
  24  0.248  0.471  0.954-  15 2.99  13 3.01
  25  0.752  0.454  0.459-  16 2.98  14 3.02
  26  0.845  0.530  0.853-  15 2.47  35 2.67   7 2.94
  27  0.547  0.031  0.741-  10 3.00  11 3.07
  28  0.037  0.025  0.255-  12 2.98   9 3.02
  29  0.748  0.977  0.041-  11 2.99   9 3.00
  30  0.256  0.960  0.547-  12 2.98  10 3.01
  31  0.243  0.030  0.939-  11 2.99   9 2.99
  32  0.747  0.029  0.449-  10 2.97  12 3.06
  33  0.437  0.974  0.238-  11 2.97  10 2.99
  34  0.944  0.969  0.750-   9 2.95  12 3.00
  35  0.751  0.529  0.056-  26 2.67  13 2.97  15 3.03
  36  0.260  0.533  0.554-  16 3.00  14 3.02
  37  0.554  0.476  0.766-  13 2.89  16 3.05
  38  0.051  0.469  0.257-  14 2.97  15 3.02
  39  0.551  0.662  0.408-  16 2.41


IMPORTANT INFORMATION: All symmetrisations will be switched off!
NOSYMM: (Re-)initialisation of all symmetry stuff for point group C_1.



 KPOINTS: 1x1x1                                   

Automatic generation of k-mesh.
Space group operators:
 irot       det(A)        alpha          n_x          n_y          n_z        tau_x        tau_y        tau_z
    1     1.000000     0.000001     1.000000     0.000000     0.000000     0.000000     0.000000     0.000000
 
 Subroutine IBZKPT returns following result:
 ===========================================
 
 Found      8 irreducible k-points:
 
 Following reciprocal coordinates:
            Coordinates               Weight
  0.000000  0.000000  0.000000      1.000000
  0.500000  0.000000  0.000000      1.000000
  0.000000  0.500000  0.000000      1.000000
  0.500000  0.500000  0.000000      1.000000
  0.000000  0.000000  0.500000      1.000000
  0.500000  0.000000  0.500000      1.000000
  0.000000  0.500000  0.500000      1.000000
  0.500000  0.500000  0.500000      1.000000
 
 Following cartesian coordinates:
            Coordinates               Weight
 -0.000000  0.000000  0.000000      1.000000
  0.029563  0.000000  0.031093      1.000000
 -0.000000  0.042626  0.000000      1.000000
  0.029563  0.042626  0.031093      1.000000
 -0.029563  0.000000  0.031093      1.000000
  0.000000  0.000000  0.062187      1.000000
 -0.029563  0.042626  0.031093      1.000000
  0.000000  0.042626  0.062187      1.000000
 


--------------------------------------------------------------------------------------------------------




 Dimension of arrays:
   k-points           NKPTS =      8   k-points in BZ     NKDIM =      8   number of bands    NBANDS=    208
   number of dos      NEDOS =    301   number of ions     NIONS =     39
   non local maximal  LDIM  =      6   non local SUM 2l+1 LMDIM =     18
   total plane-waves  NPLWV = 343000
   max r-space proj   IRMAX =   5734   max aug-charges    IRDMAX=  91523
   dimension x,y,z NGX =    70 NGY =   70 NGZ =   70
   dimension x,y,z NGXF=   140 NGYF=  140 NGZF=  140
   support grid    NGXF=   280 NGYF=  280 NGZF=  280
   ions per type =               8   8  23
   NGX,Y,Z   is equivalent  to a cutoff of   9.97,  9.92,  9.97 a.u.
   NGXF,Y,Z  is equivalent  to a cutoff of  19.95, 19.84, 19.95 a.u.

 SYSTEM =  CsPbBr3 cubic bulk                      
 POSCAR =  Cs8 Pb8 Br23                            

 Startparameter for this run:
   NWRITE =      2    write-flag & timer
   PREC   = accura    normal or accurate (medium, high low for compatibility)
   ISTART =      0    job   : 0-new  1-cont  2-samecut
   ICHARG =      2    charge: 1-file 2-atom 10-const
   ISPIN  =      1    spin polarized calculation?
   LNONCOLLINEAR =      F non collinear calculations
   LSORBIT =      F    spin-orbit coupling
   INIWAV =      1    electr: 0-lowe 1-rand  2-diag
   LASPH  =      T    aspherical Exc in radial PAW
   METAGGA=      F    non-selfconsistent MetaGGA calc.

 Electronic Relaxation 1
   ENCUT  =  300.0 eV  22.05 Ry    4.70 a.u.  16.48 16.57 16.48*2*pi/ulx,y,z
   ENINI  =  300.0     initial cutoff
   ENAUG  =  503.9 eV  augmentation charge cutoff
   NELM   =    200;   NELMIN=  2; NELMDL= -5     # of ELM steps 
   EDIFF  = 0.1E-05   stopping-criterion for ELM
   LREAL  =      T    real-space projection
   NLSPLINE    = F    spline interpolate recip. space projectors
   LCOMPAT=      F    compatible to vasp.4.4
   GGA_COMPAT  = T    GGA compatible to vasp.4.4-vasp.4.6
   LMAXPAW     = -100 max onsite density
   LMAXMIX     =    2 max onsite mixed and CHGCAR
   VOSKOWN=      0    Vosko Wilk Nusair interpolation
   ROPT   =   -0.00025  -0.00025  -0.00025
 Ionic relaxation
   EDIFFG = -.1E-01   stopping-criterion for IOM
   NSW    =      0    number of steps for IOM
   NBLOCK =      1;   KBLOCK =      1    inner block; outer block 
   IBRION =     -1    ionic relax: 0-MD 1-quasi-New 2-CG
   NFREE  =      1    steps in history (QN), initial steepest desc. (CG)
   ISIF   =      2    stress and relaxation
   IWAVPR =     10    prediction:  0-non 1-charg 2-wave 3-comb
   ISYM   =      0    0-nonsym 1-usesym 2-fastsym
   LCORR  =      T    Harris-Foulkes like correction to forces

   POTIM  = 0.5000    time-step for ionic-motion
   TEIN   =    0.0    initial temperature
   TEBEG  =    0.0;   TEEND  =   0.0 temperature during run
   SMASS  =  -3.00    Nose mass-parameter (am)
   estimated Nose-frequenzy (Omega)   =  0.10E-29 period in steps =****** mass=  -0.311E-26a.u.
   SCALEE = 1.0000    scale energy and forces
   NPACO  =    256;   APACO  = 16.0  distance and # of slots for P.C.
   PSTRESS=    0.0 pullay stress

  Mass of Ions in am
   POMASS = 132.90207.20 79.90
  Ionic Valenz
   ZVAL   =   9.00 14.00  7.00
  Atomic Wigner-Seitz radii
   RWIGS  =  -1.00 -1.00 -1.00
  virtual crystal weights 
   VCA    =   1.00  1.00  1.00
   NELECT =     344.0000    total number of electrons
   NUPDOWN=       0.0000    fix difference up-down

 DOS related values:
   EMIN   =  10.00;   EMAX   =-10.00  energy-range for DOS
   EFERMI =   0.00
   ISMEAR =     0;   SIGMA  =   0.01  broadening in eV -4-tet -1-fermi 0-gaus

 Electronic relaxation 2 (details)
   IALGO  =     38    algorithm
   LDIAG  =      T    sub-space diagonalisation (order eigenvalues)
   LSUBROT=      F    optimize rotation matrix (better conditioning)
   TURBO    =      0    0=normal 1=particle mesh
   IRESTART =      0    0=no restart 2=restart with 2 vectors
   NREBOOT  =      0    no. of reboots
   NMIN     =      0    reboot dimension
   EREF     =   0.00    reference energy to select bands
   IMIX   =      4    mixing-type and parameters
     AMIX     =   0.40;   BMIX     =  1.00
     AMIX_MAG =   1.60;   BMIX_MAG =  1.00
     AMIN     =   0.10
     WC   =   100.;   INIMIX=   1;  MIXPRE=   1;  MAXMIX= -45

 Intra band minimization:
   WEIMIN = 0.0000     energy-eigenvalue tresh-hold
   EBREAK =  0.12E-08  absolut break condition
   DEPER  =   0.30     relativ break condition  

   TIME   =   0.40     timestep for ELM

  volume/ion in A,a.u.               =      40.90       276.00
  Fermi-wavevector in a.u.,A,eV,Ry     =   0.981747  1.855232 13.113654  0.963826
  Thomas-Fermi vector in A             =   2.112777

 Write flags
   LWAVE        =      F    write WAVECAR
   LDOWNSAMPLE  =      F    k-point downsampling of WAVECAR
   LCHARG       =      F    write CHGCAR
   LVTOT        =      F    write LOCPOT, total local potential
   LVHAR        =      T    write LOCPOT, Hartree potential only
   LELF         =      F    write electronic localiz. function (ELF)
   LORBIT       =     10    0 simple, 1 ext, 2 COOP (PROOUT), +10 PAW based schemes


 Dipole corrections
   LMONO  =      F    monopole corrections only (constant potential shift)
   LDIPOL =      F    correct potential (dipole corrections)
   IDIPOL =      0    1-x, 2-y, 3-z, 4-all directions 
   EPSILON=  1.0000000 bulk dielectric constant

 Exchange correlation treatment:
   GGA     =    --    GGA type
   LEXCH   =     8    internal setting for exchange type
   VOSKOWN=      0    Vosko Wilk Nusair interpolation
   LHFCALC =     F    Hartree Fock is set to
   LHFONE  =     F    Hartree Fock one center treatment
   AEXX    =    0.0000 exact exchange contribution

 Linear response parameters
   LEPSILON=     F    determine dielectric tensor
   LRPA    =     F    only Hartree local field effects (RPA)
   LNABLA  =     F    use nabla operator in PAW spheres
   LVEL    =     F    velocity operator in full k-point grid
   LINTERFAST=   F  fast interpolation
   KINTER  =     0    interpolate to denser k-point grid
   CSHIFT  =0.1000    complex shift for real part using Kramers Kronig
   OMEGAMAX=  -1.0    maximum frequency
   DEG_THRESHOLD= 0.2000000E-02 threshold for treating states as degnerate
   RTIME   =   -0.100 relaxation time in fs
  (WPLASMAI=    0.000 imaginary part of plasma frequency in eV, 0.658/RTIME)
   DFIELD  = 0.0000000 0.0000000 0.0000000 field for delta impulse in time

 Orbital magnetization related:
   ORBITALMAG=     F  switch on orbital magnetization
   LCHIMAG   =     F  perturbation theory with respect to B field
   DQ        =  0.001000  dq finite difference perturbation B field
   LLRAUG    =     F  two centre corrections for induced B field



--------------------------------------------------------------------------------------------------------


 Static calculation
 charge density and potential will be updated during run
 non-spin polarized calculation
 Variant of blocked Davidson
 Davidson routine will perform the subspace rotation
 perform sub-space diagonalisation
    after iterative eigenvector-optimisation
 modified Broyden-mixing scheme, WC =      100.0
 initial mixing is a Kerker type mixing with AMIX =  0.4000 and BMIX =      1.0000
 Hartree-type preconditioning will be used
 using additional bands           36
 real space projection scheme for non local part
 use partial core corrections
 calculate Harris-corrections to forces   (improved forces if not selfconsistent)
 use gradient corrections 
 use of overlap-Matrix (Vanderbilt PP)
 Gauss-broadening in eV      SIGMA  =   0.01


--------------------------------------------------------------------------------------------------------


  energy-cutoff  :      300.00
  volume of cell :     1595.09
      direct lattice vectors                 reciprocal lattice vectors
     8.456489000  0.000000000  8.040301000     0.059126193 -0.000000000  0.062186727
     0.000000000 11.729847000  0.000000000     0.000000000  0.085252604 -0.000000000
    -8.456489000  0.000000000  8.040301000    -0.059126193  0.000000000  0.062186727

  length of vectors
    11.668703715 11.729847000 11.668703715     0.085808482  0.085252604  0.085808482



 k-points in units of 2pi/SCALE and weight: 1x1x1                                   
  -0.00000000  0.00000000  0.00000000       0.125
   0.02956310  0.00000000  0.03109336       0.125
  -0.00000000  0.04262630  0.00000000       0.125
   0.02956310  0.04262630  0.03109336       0.125
  -0.02956310  0.00000000  0.03109336       0.125
   0.00000000  0.00000000  0.06218673       0.125
  -0.02956310  0.04262630  0.03109336       0.125
   0.00000000  0.04262630  0.06218673       0.125

 k-points in reciprocal lattice and weights: 1x1x1                                   
   0.00000000  0.00000000  0.00000000       0.125
   0.50000000  0.00000000  0.00000000       0.125
   0.00000000  0.50000000  0.00000000       0.125
   0.50000000  0.50000000  0.00000000       0.125
   0.00000000  0.00000000  0.50000000       0.125
   0.50000000  0.00000000  0.50000000       0.125
   0.00000000  0.50000000  0.50000000       0.125
   0.50000000  0.50000000  0.50000000       0.125

 position of ions in fractional coordinates (direct lattice) 
   0.25343400  0.23787300  0.19466300
   0.77427100  0.24427400  0.71736200
   0.76414100  0.76183600  0.25924700
   0.19762400  0.75011900  0.77196100
   0.29911500  0.25128600  0.73276100
   0.78495400  0.24523100  0.22735900
   0.73552700  0.75184600  0.80556500
   0.21624100  0.75406100  0.28696900
   0.99825200  0.00080300  0.99783800
   0.49956400  0.00236100  0.48750700
   0.49438800  0.00119200  0.99410300
   0.00493000  0.00037700  0.50535800
   0.50086300  0.50593200  0.00335900
   0.00598100  0.49373000  0.50384600
   0.99990600  0.49797300  0.00193900
   0.50587200  0.48822900  0.50658600
   0.46647800  0.75210600  0.95359500
   0.97989100  0.74679900  0.48818300
   0.96664300  0.25010700  0.97693600
   0.45711500  0.24195800  0.45491700
   0.01846300  0.74947300  0.02975600
   0.51914800  0.25476800  0.03320800
   0.03738100  0.24748800  0.54881200
   0.24774600  0.47082600  0.95409600
   0.75190200  0.45382800  0.45895200
   0.84548700  0.53014500  0.85299100
   0.54671100  0.03148200  0.74058200
   0.03719800  0.02464900  0.25463500
   0.74776200  0.97685200  0.04054300
   0.25560400  0.95979800  0.54743300
   0.24308900  0.03024500  0.93946000
   0.74744800  0.02899500  0.44920300
   0.43719900  0.97371500  0.23787300
   0.94371600  0.96865600  0.74993300
   0.75106900  0.52931600  0.05634500
   0.25951100  0.53263900  0.55386500
   0.55387500  0.47616200  0.76587600
   0.05110800  0.46903500  0.25683700
   0.55128700  0.66180700  0.40846000

 position of ions in cartesian coordinates  (Angst):
   0.49699632  2.79021390  3.60283476
   0.48125033  2.86529665 11.99317830
   4.26963056  8.93621972  8.22834756
  -4.85687452  8.79878110  7.79575525
  -3.66712263  2.94754633  8.29659363
   4.71529598  2.87652211  8.13930123
  -0.59227558  8.81903855 12.39084355
  -0.59811055  8.84502016  4.04595987
   0.00350099  0.00941907 16.04916442
   0.10195989  0.02769417  7.93634795
  -4.22583440  0.01398198 11.96791568
  -4.23186388  0.00442215  4.10286912
   4.20713710  5.93450495  4.05409665
  -4.21018990  5.79137736  4.09916254
   8.43929696  5.84114710  8.05513536
  -0.00603793  5.72685147  8.14046707
  -4.11929955  8.82208831 11.41781436
   4.15812329  8.75983801 11.80375685
  -0.08704264  2.93371684 15.62696018
   0.01858736  2.83813032  7.33301180
  -0.09549913  8.79120362  0.38769527
   4.10934626  2.98838966  4.44110850
  -4.32491063  2.90299637  4.71316816
  -5.97324101  5.52271694  9.66317143
   2.47732845  5.32333300  9.73563063
  -0.06345749  6.21851974 13.65627436
  -1.63946798  0.36927904 10.35022320
  -1.83875360  0.28912900  2.34642516
   5.98058969 11.45832450  6.33820948
  -2.46784873 11.25828369  6.45665919
  -5.88885370  0.35476922  9.50804991
   2.52210556  0.34010691  9.62143423
   1.68559813 11.42152797  5.42778208
   1.63872381 11.36218668 13.61744775
   5.87492586  6.20879569  6.49185159
  -2.48920136  6.24777398  6.53978787
  -1.79278412  5.58530741 10.61119529
  -1.73974503  5.50170879  2.47597049
   1.20781495  7.76289485  7.71665476



--------------------------------------------------------------------------------------------------------


 k-point  1 :   0.0000 0.0000 0.0000  plane waves:   18809
 k-point  2 :   0.5000 0.0000 0.0000  plane waves:   18808
 k-point  3 :   0.0000 0.5000 0.0000  plane waves:   18794
 k-point  4 :   0.5000 0.5000 0.0000  plane waves:   18804
 k-point  5 :   0.0000 0.0000 0.5000  plane waves:   18808
 k-point  6 :   0.5000 0.0000 0.5000  plane waves:   18790
 k-point  7 :   0.0000 0.5000 0.5000  plane waves:   18804
 k-point  8 :   0.5000 0.5000 0.5000  plane waves:   18800

 maximum and minimum number of plane-waves per node :      2389     2304

 maximum number of plane-waves:     18809
 maximum index in each direction: 
   IXMAX=   16   IYMAX=   16   IZMAX=   16
   IXMIN=  -16   IYMIN=  -17   IZMIN=  -16


 real space projection operators:
  total allocation   :      16736.52 KBytes
  max/ min on nodes  :       2180.75       1858.08


 parallel 3D FFT for wavefunctions:
    minimum data exchange during FFTs selected (reduces bandwidth)
 parallel 3D FFT for charge:
    minimum data exchange during FFTs selected (reduces bandwidth)


 total amount of memory used by VASP MPI-rank0    60644. kBytes
=======================================================================

   base      :      30000. kBytes
   nonlr-proj:       6479. kBytes
   fftplans  :       8423. kBytes
   grid      :       7465. kBytes
   one-center:         77. kBytes
   wavefun   :       8200. kBytes

     INWAV:  cpu time    0.0000: real time    0.0000
 Broyden mixing: mesh for mixing (old mesh)
   NGX = 33   NGY = 33   NGZ = 33
  (NGX  =140   NGY  =140   NGZ  =140)
  gives a total of  35937 points

 initial charge density was supplied:
 charge density of overlapping atoms calculated
 number of electron     345.0000000 magnetization 
 keeping initial charge density in first step


--------------------------------------------------------------------------------------------------------


 Maximum index for non-local projection operator          722
 Maximum index for augmentation-charges         3071 (set IRDMAX)


--------------------------------------------------------------------------------------------------------


 First call to EWALD:  gamma=   0.152
 Maximum number of real-space cells 3x 3x 3
 Maximum number of reciprocal cells 3x 3x 3

    FEWALD:  cpu time    0.0038: real time    0.0038


--------------------------------------- Iteration      1(   1)  ---------------------------------------


    POTLOK:  cpu time    0.2626: real time    0.2628
    SETDIJ:  cpu time    1.2038: real time    1.2038
     EDDAV:  cpu time   16.7016: real time   16.7085
       DOS:  cpu time    0.0013: real time    0.0013
    --------------------------------------------
      LOOP:  cpu time   18.1693: real time   18.1764

 eigenvalue-minimisations  :  3480
 total energy-change (2. order) : 0.1347640E+04  (-0.1106165E+05)
 number of electron     345.0000000 magnetization 
 augmentation part      345.0000000 magnetization 

 Free energy of the ion-electron system (eV)
  ---------------------------------------------------
  alpha Z        PSCENC =       872.70583573
  Ewald energy   TEWEN  =    -17758.35530966
  -Hartree energ DENC   =     -7585.96110458
  -exchange      EXHF   =         0.00000000
  -V(xc)+E(xc)   XCENC  =       909.48527632
  PAW double counting   =     21345.28103884   -22405.85761495
  entropy T*S    EENTRO =        -0.00111501
  eigenvalues    EBANDS =      -241.77591722
  atomic energy  EATOM  =     26212.11861568
  Solvation  Ediel_sol  =         0.00000000
  ---------------------------------------------------
  free energy    TOTEN  =      1347.63970516 eV

  energy without entropy =     1347.64082017  energy(sigma->0) =     1347.64026266


--------------------------------------------------------------------------------------------------------




--------------------------------------- Iteration      1(   2)  ---------------------------------------


     EDDAV:  cpu time   18.4954: real time   18.5534
       DOS:  cpu time    0.0004: real time    0.0004
    --------------------------------------------
      LOOP:  cpu time   18.4958: real time   18.5538

 eigenvalue-minimisations  :  4080
 total energy-change (2. order) :-0.2452437E+04  (-0.2362562E+04)
 number of electron     345.0000000 magnetization 
 augmentation part      345.0000000 magnetization 

 Free energy of the ion-electron system (eV)
  ---------------------------------------------------
  alpha Z        PSCENC =       872.70583573
  Ewald energy   TEWEN  =    -17758.35530966
  -Hartree energ DENC   =     -7585.96110458
  -exchange      EXHF   =         0.00000000
  -V(xc)+E(xc)   XCENC  =       909.48527632
  PAW double counting   =     21345.28103884   -22405.85761495
  entropy T*S    EENTRO =        -0.00000000
  eigenvalues    EBANDS =     -2694.21370371
  atomic energy  EATOM  =     26212.11861568
  Solvation  Ediel_sol  =         0.00000000
  ---------------------------------------------------
  free energy    TOTEN  =     -1104.79696633 eV

  energy without entropy =    -1104.79696633  energy(sigma->0) =    -1104.79696633


--------------------------------------------------------------------------------------------------------




--------------------------------------- Iteration      1(   3)  ---------------------------------------


     EDDAV:  cpu time   19.4653: real time   19.5175
       DOS:  cpu time    0.0007: real time    0.0007
    --------------------------------------------
      LOOP:  cpu time   19.4661: real time   19.5182

 eigenvalue-minimisations  :  4416
 total energy-change (2. order) :-0.3662175E+03  (-0.3640809E+03)
 number of electron     345.0000000 magnetization 
 augmentation part      345.0000000 magnetization 

 Free energy of the ion-electron system (eV)
  ---------------------------------------------------
  alpha Z        PSCENC =       872.70583573
  Ewald energy   TEWEN  =    -17758.35530966
  -Hartree energ DENC   =     -7585.96110458
  -exchange      EXHF   =         0.00000000
  -V(xc)+E(xc)   XCENC  =       909.48527632
  PAW double counting   =     21345.28103884   -22405.85761495
  entropy T*S    EENTRO =        -0.00000000
  eigenvalues    EBANDS =     -3060.43121535
  atomic energy  EATOM  =     26212.11861568
  Solvation  Ediel_sol  =         0.00000000
  ---------------------------------------------------
  free energy    TOTEN  =     -1471.01447797 eV

  energy without entropy =    -1471.01447797  energy(sigma->0) =    -1471.01447797


--------------------------------------------------------------------------------------------------------




--------------------------------------- Iteration      1(   4)  ---------------------------------------


     EDDAV:  cpu time   17.9733: real time   18.0335
       DOS:  cpu time    0.0004: real time    0.0004
    --------------------------------------------
      LOOP:  cpu time   17.9737: real time   18.0339

 eigenvalue-minimisations  :  3904
 total energy-change (2. order) :-0.1250943E+02  (-0.1247103E+02)
 number of electron     345.0000000 magnetization 
 augmentation part      345.0000000 magnetization 

 Free energy of the ion-electron system (eV)
  ---------------------------------------------------
  alpha Z        PSCENC =       872.70583573
  Ewald energy   TEWEN  =    -17758.35530966
  -Hartree energ DENC   =     -7585.96110458
  -exchange      EXHF   =         0.00000000
  -V(xc)+E(xc)   XCENC  =       909.48527632
  PAW double counting   =     21345.28103884   -22405.85761495
  entropy T*S    EENTRO =        -0.00000000
  eigenvalues    EBANDS =     -3072.94064327
  atomic energy  EATOM  =     26212.11861568
  Solvation  Ediel_sol  =         0.00000000
  ---------------------------------------------------
  free energy    TOTEN  =     -1483.52390588 eV

  energy without entropy =    -1483.52390588  energy(sigma->0) =    -1483.52390588


--------------------------------------------------------------------------------------------------------




--------------------------------------- Iteration      1(   5)  ---------------------------------------


     EDDAV:  cpu time   19.4056: real time   19.4404
       DOS:  cpu time    0.0004: real time    0.0004
    CHARGE:  cpu time    2.7402: real time    2.7403
    MIXING:  cpu time    0.0019: real time    0.0019
    --------------------------------------------
      LOOP:  cpu time   22.1482: real time   22.1830

 eigenvalue-minimisations  :  4392
 total energy-change (2. order) :-0.5969159E+00  (-0.5966419E+00)
 number of electron     344.0000001 magnetization 
 augmentation part       -5.1229161 magnetization 

 Broyden mixing:
  rms(total) = 0.12918E+01    rms(broyden)= 0.12913E+01
  rms(prec ) = 0.16251E+01
  weight for this iteration     100.00

 Free energy of the ion-electron system (eV)
  ---------------------------------------------------
  alpha Z        PSCENC =       872.70583573
  Ewald energy   TEWEN  =    -17758.35530966
  -Hartree energ DENC   =     -7585.96110458
  -exchange      EXHF   =         0.00000000
  -V(xc)+E(xc)   XCENC  =       909.48527632
  PAW double counting   =     21345.28103884   -22405.85761495
  entropy T*S    EENTRO =        -0.00000000
  eigenvalues    EBANDS =     -3073.53755913
  atomic energy  EATOM  =     26212.11861568
  Solvation  Ediel_sol  =         0.00000000
  ---------------------------------------------------
  free energy    TOTEN  =     -1484.12082175 eV

  energy without entropy =    -1484.12082175  energy(sigma->0) =    -1484.12082175


--------------------------------------------------------------------------------------------------------




--------------------------------------- Iteration      1(   6)  ---------------------------------------


    POTLOK:  cpu time    0.3141: real time    0.3217
    SETDIJ:  cpu time    1.2013: real time    1.2013
     EDDAV:  cpu time   19.2010: real time   19.2017
       DOS:  cpu time    0.0005: real time    0.0005
    CHARGE:  cpu time    2.7413: real time    2.7414
    MIXING:  cpu time    0.0016: real time    0.0016
    --------------------------------------------
      LOOP:  cpu time   23.4598: real time   23.4683

 eigenvalue-minimisations  :  4312
 total energy-change (2. order) : 0.7808354E+02  (-0.2343876E+01)
 number of electron     344.0000001 magnetization 
 augmentation part       -3.7457931 magnetization 

 Broyden mixing:
  rms(total) = 0.89763E+00    rms(broyden)= 0.89756E+00
  rms(prec ) = 0.10532E+01
  weight for this iteration     100.00

 eigenvalues of (default mixing * dielectric matrix)
  average eigenvalue GAMMA=   1.5348
  1.5348

 Free energy of the ion-electron system (eV)
  ---------------------------------------------------
  alpha Z        PSCENC =       872.70583573
  Ewald energy   TEWEN  =    -17758.35530966
  -Hartree energ DENC   =     -7570.89184458
  -exchange      EXHF   =         0.00000000
  -V(xc)+E(xc)   XCENC  =       937.39422956
  PAW double counting   =     21751.34619325   -22811.05623199
  entropy T*S    EENTRO =        -0.00000000
  eigenvalues    EBANDS =     -3039.29876662
  atomic energy  EATOM  =     26212.11861568
  Solvation  Ediel_sol  =         0.00000000
  ---------------------------------------------------
  free energy    TOTEN  =     -1406.03727863 eV

  energy without entropy =    -1406.03727863  energy(sigma->0) =    -1406.03727863


--------------------------------------------------------------------------------------------------------




--------------------------------------- Iteration      1(   7)  ---------------------------------------


    POTLOK:  cpu time    0.2872: real time    0.3108
    SETDIJ:  cpu time    1.2025: real time    1.2026
     EDDAV:  cpu time   18.9894: real time   18.9900
       DOS:  cpu time    0.0004: real time    0.0004
    CHARGE:  cpu time    2.7355: real time    2.7358
    MIXING:  cpu time    0.0016: real time    0.0016
    --------------------------------------------
      LOOP:  cpu time   23.2167: real time   23.2411

 eigenvalue-minimisations  :  4240
 total energy-change (2. order) : 0.4914959E+00  (-0.1017447E+01)
 number of electron     344.0000001 magnetization 
 augmentation part       -3.1173351 magnetization 

 Broyden mixing:
  rms(total) = 0.38473E+00    rms(broyden)= 0.38471E+00
  rms(prec ) = 0.42357E+00
  weight for this iteration     100.00

 eigenvalues of (default mixing * dielectric matrix)
  average eigenvalue GAMMA=   1.3816
  1.1496  1.6135

 Free energy of the ion-electron system (eV)
  ---------------------------------------------------
  alpha Z        PSCENC =       872.70583573
  Ewald energy   TEWEN  =    -17758.35530966
  -Hartree energ DENC   =     -7621.92959870
  -exchange      EXHF   =         0.00000000
  -V(xc)+E(xc)   XCENC  =       943.21377736
  PAW double counting   =     22581.61309721   -23640.14087532
  entropy T*S    EENTRO =        -0.00000000
  eigenvalues    EBANDS =     -2994.77132500
  atomic energy  EATOM  =     26212.11861568
  Solvation  Ediel_sol  =         0.00000000
  ---------------------------------------------------
  free energy    TOTEN  =     -1405.54578269 eV

  energy without entropy =    -1405.54578269  energy(sigma->0) =    -1405.54578269


--------------------------------------------------------------------------------------------------------




--------------------------------------- Iteration      1(   8)  ---------------------------------------


    POTLOK:  cpu time    0.2852: real time    0.3219
    SETDIJ:  cpu time    1.2016: real time    1.2017
     EDDAV:  cpu time   18.3796: real time   18.3808
       DOS:  cpu time    0.0007: real time    0.0007
    CHARGE:  cpu time    2.7389: real time    2.7389
    MIXING:  cpu time    0.0015: real time    0.0015
    --------------------------------------------
      LOOP:  cpu time   22.6075: real time   22.6455

 eigenvalue-minimisations  :  4032
 total energy-change (2. order) :-0.1582033E+00  (-0.5812567E-01)
 number of electron     344.0000001 magnetization 
 augmentation part       -3.2373076 magnetization 

 Broyden mixing:
  rms(total) = 0.22873E+00    rms(broyden)= 0.22873E+00
  rms(prec ) = 0.25560E+00
  weight for this iteration     100.00

 eigenvalues of (default mixing * dielectric matrix)
  average eigenvalue GAMMA=   1.6928
  1.1188  1.3582  2.6015

 Free energy of the ion-electron system (eV)
  ---------------------------------------------------
  alpha Z        PSCENC =       872.70583573
  Ewald energy   TEWEN  =    -17758.35530966
  -Hartree energ DENC   =     -7625.67443313
  -exchange      EXHF   =         0.00000000
  -V(xc)+E(xc)   XCENC  =       943.57519301
  PAW double counting   =     22826.28669317   -23885.55394429
  entropy T*S    EENTRO =        -0.00000000
  eigenvalues    EBANDS =     -2990.80663652
  atomic energy  EATOM  =     26212.11861568
  Solvation  Ediel_sol  =         0.00000000
  ---------------------------------------------------
  free energy    TOTEN  =     -1405.70398602 eV

  energy without entropy =    -1405.70398602  energy(sigma->0) =    -1405.70398602


--------------------------------------------------------------------------------------------------------




--------------------------------------- Iteration      1(   9)  ---------------------------------------


    POTLOK:  cpu time    0.3021: real time    0.3119
    SETDIJ:  cpu time    1.2009: real time    1.2009
     EDDAV:  cpu time   18.1860: real time   18.1869
       DOS:  cpu time    0.0009: real time    0.0009
    CHARGE:  cpu time    2.7292: real time    2.7293
    MIXING:  cpu time    0.0016: real time    0.0016
    --------------------------------------------
      LOOP:  cpu time   22.4206: real time   22.4314

 eigenvalue-minimisations  :  3968
 total energy-change (2. order) :-0.5475660E-01  (-0.1622346E-01)
 number of electron     344.0000001 magnetization 
 augmentation part       -3.2811075 magnetization 

 Broyden mixing:
  rms(total) = 0.44310E-01    rms(broyden)= 0.44306E-01
  rms(prec ) = 0.56860E-01
  weight for this iteration     100.00

 eigenvalues of (default mixing * dielectric matrix)
  average eigenvalue GAMMA=   1.4867
  2.5314  1.2713  1.2713  0.8726

 Free energy of the ion-electron system (eV)
  ---------------------------------------------------
  alpha Z        PSCENC =       872.70583573
  Ewald energy   TEWEN  =    -17758.35530966
  -Hartree energ DENC   =     -7632.55605867
  -exchange      EXHF   =         0.00000000
  -V(xc)+E(xc)   XCENC  =       945.19821411
  PAW double counting   =     23179.05806661   -24239.60590030
  entropy T*S    EENTRO =        -0.00000000
  eigenvalues    EBANDS =     -2984.32220613
  atomic energy  EATOM  =     26212.11861568
  Solvation  Ediel_sol  =         0.00000000
  ---------------------------------------------------
  free energy    TOTEN  =     -1405.75874262 eV

  energy without entropy =    -1405.75874262  energy(sigma->0) =    -1405.75874262


--------------------------------------------------------------------------------------------------------




--------------------------------------- Iteration      1(  10)  ---------------------------------------


    POTLOK:  cpu time    0.3150: real time    0.3168
    SETDIJ:  cpu time    1.2027: real time    1.2027
     EDDAV:  cpu time   20.3536: real time   20.3545
       DOS:  cpu time    0.0005: real time    0.0005
    CHARGE:  cpu time    2.7309: real time    2.7310
    MIXING:  cpu time    0.0016: real time    0.0016
    --------------------------------------------
      LOOP:  cpu time   24.6042: real time   24.6070

 eigenvalue-minimisations  :  4712
 total energy-change (2. order) :-0.3301226E-02  (-0.2397954E-02)
 number of electron     344.0000001 magnetization 
 augmentation part       -3.2677472 magnetization 

 Broyden mixing:
  rms(total) = 0.33011E-01    rms(broyden)= 0.33009E-01
  rms(prec ) = 0.42798E-01
  weight for this iteration     100.00

 eigenvalues of (default mixing * dielectric matrix)
  average eigenvalue GAMMA=   1.3417
  2.4708  1.3187  1.3187  0.8002  0.8002

 Free energy of the ion-electron system (eV)
  ---------------------------------------------------
  alpha Z        PSCENC =       872.70583573
  Ewald energy   TEWEN  =    -17758.35530966
  -Hartree energ DENC   =     -7631.28865879
  -exchange      EXHF   =         0.00000000
  -V(xc)+E(xc)   XCENC  =       945.13317504
  PAW double counting   =     23151.42150741   -24211.94536534
  entropy T*S    EENTRO =        -0.00000000
  eigenvalues    EBANDS =     -2985.55184392
  atomic energy  EATOM  =     26212.11861568
  Solvation  Ediel_sol  =         0.00000000
  ---------------------------------------------------
  free energy    TOTEN  =     -1405.76204384 eV

  energy without entropy =    -1405.76204384  energy(sigma->0) =    -1405.76204384


--------------------------------------------------------------------------------------------------------




--------------------------------------- Iteration      1(  11)  ---------------------------------------


    POTLOK:  cpu time    0.2849: real time    0.3183
    SETDIJ:  cpu time    1.2021: real time    1.2022
     EDDAV:  cpu time   18.2653: real time   18.2661
       DOS:  cpu time    0.0004: real time    0.0004
    CHARGE:  cpu time    2.7335: real time    2.7336
    MIXING:  cpu time    0.0017: real time    0.0017
    --------------------------------------------
      LOOP:  cpu time   22.4879: real time   22.5223

 eigenvalue-minimisations  :  3992
 total energy-change (2. order) :-0.2388188E-02  (-0.3201666E-03)
 number of electron     344.0000001 magnetization 
 augmentation part       -3.2662940 magnetization 

 Broyden mixing:
  rms(total) = 0.15463E-01    rms(broyden)= 0.15462E-01
  rms(prec ) = 0.24410E-01
  weight for this iteration     100.00

 eigenvalues of (default mixing * dielectric matrix)
  average eigenvalue GAMMA=   1.5957
  2.6811  2.6811  1.2243  1.2243  0.8817  0.8817

 Free energy of the ion-electron system (eV)
  ---------------------------------------------------
  alpha Z        PSCENC =       872.70583573
  Ewald energy   TEWEN  =    -17758.35530966
  -Hartree energ DENC   =     -7630.37544512
  -exchange      EXHF   =         0.00000000
  -V(xc)+E(xc)   XCENC  =       945.11108292
  PAW double counting   =     23134.23362138   -24194.85369455
  entropy T*S    EENTRO =        -0.00000000
  eigenvalues    EBANDS =     -2986.34913843
  atomic energy  EATOM  =     26212.11861568
  Solvation  Ediel_sol  =         0.00000000
  ---------------------------------------------------
  free energy    TOTEN  =     -1405.76443203 eV

  energy without entropy =    -1405.76443203  energy(sigma->0) =    -1405.76443203


--------------------------------------------------------------------------------------------------------




--------------------------------------- Iteration      1(  12)  ---------------------------------------


    POTLOK:  cpu time    0.3079: real time    0.3194
    SETDIJ:  cpu time    1.2024: real time    1.2024
     EDDAV:  cpu time   17.3792: real time   17.3801
       DOS:  cpu time    0.0004: real time    0.0004
    CHARGE:  cpu time    2.7334: real time    2.7335
    MIXING:  cpu time    0.0017: real time    0.0017
    --------------------------------------------
      LOOP:  cpu time   21.6249: real time   21.6375

 eigenvalue-minimisations  :  3696
 total energy-change (2. order) :-0.2776833E-02  (-0.4680952E-03)
 number of electron     344.0000001 magnetization 
 augmentation part       -3.2676166 magnetization 

 Broyden mixing:
  rms(total) = 0.98122E-02    rms(broyden)= 0.98113E-02
  rms(prec ) = 0.13325E-01
  weight for this iteration     100.00

 eigenvalues of (default mixing * dielectric matrix)
  average eigenvalue GAMMA=   1.5761
  2.9326  2.6560  1.2961  1.2961  0.9305  0.9606  0.9606

 Free energy of the ion-electron system (eV)
  ---------------------------------------------------
  alpha Z        PSCENC =       872.70583573
  Ewald energy   TEWEN  =    -17758.35530966
  -Hartree energ DENC   =     -7629.97477248
  -exchange      EXHF   =         0.00000000
  -V(xc)+E(xc)   XCENC  =       945.14127836
  PAW double counting   =     23120.51227750   -24181.30237446
  entropy T*S    EENTRO =        -0.00000000
  eigenvalues    EBANDS =     -2986.61275954
  atomic energy  EATOM  =     26212.11861568
  Solvation  Ediel_sol  =         0.00000000
  ---------------------------------------------------
  free energy    TOTEN  =     -1405.76720886 eV

  energy without entropy =    -1405.76720886  energy(sigma->0) =    -1405.76720886


--------------------------------------------------------------------------------------------------------




--------------------------------------- Iteration      1(  13)  ---------------------------------------


    POTLOK:  cpu time    0.2669: real time    0.3156
    SETDIJ:  cpu time    1.2023: real time    1.2024
     EDDAV:  cpu time   19.3784: real time   19.3795
       DOS:  cpu time    0.0004: real time    0.0004
    CHARGE:  cpu time    2.7341: real time    2.7342
    MIXING:  cpu time    0.0019: real time    0.0019
    --------------------------------------------
      LOOP:  cpu time   23.5841: real time   23.6340

 eigenvalue-minimisations  :  4376
 total energy-change (2. order) : 0.2101359E-03  (-0.1597213E-03)
 number of electron     344.0000001 magnetization 
 augmentation part       -3.2686792 magnetization 

 Broyden mixing:
  rms(total) = 0.60945E-02    rms(broyden)= 0.60939E-02
  rms(prec ) = 0.73184E-02
  weight for this iteration     100.00

 eigenvalues of (default mixing * dielectric matrix)
  average eigenvalue GAMMA=   1.5378
  3.2221  2.3129  1.7156  1.1069  1.1069  1.0935  1.0255  0.7188

 Free energy of the ion-electron system (eV)
  ---------------------------------------------------
  alpha Z        PSCENC =       872.70583573
  Ewald energy   TEWEN  =    -17758.35530966
  -Hartree energ DENC   =     -7630.86040522
  -exchange      EXHF   =         0.00000000
  -V(xc)+E(xc)   XCENC  =       945.20971719
  PAW double counting   =     23124.89842003   -24185.68369845
  entropy T*S    EENTRO =        -0.00000000
  eigenvalues    EBANDS =     -2985.80017403
  atomic energy  EATOM  =     26212.11861568
  Solvation  Ediel_sol  =         0.00000000
  ---------------------------------------------------
  free energy    TOTEN  =     -1405.76699873 eV

  energy without entropy =    -1405.76699873  energy(sigma->0) =    -1405.76699873


--------------------------------------------------------------------------------------------------------




--------------------------------------- Iteration      1(  14)  ---------------------------------------


    POTLOK:  cpu time    0.2933: real time    0.3170
    SETDIJ:  cpu time    1.2026: real time    1.2027
     EDDAV:  cpu time   18.5469: real time   18.5478
       DOS:  cpu time    0.0008: real time    0.0008
    CHARGE:  cpu time    2.7316: real time    2.7317
    MIXING:  cpu time    0.0018: real time    0.0018
    --------------------------------------------
      LOOP:  cpu time   22.7770: real time   22.8018

 eigenvalue-minimisations  :  4096
 total energy-change (2. order) : 0.1193603E-05  (-0.6577263E-04)
 number of electron     344.0000001 magnetization 
 augmentation part       -3.2678569 magnetization 

 Broyden mixing:
  rms(total) = 0.30446E-02    rms(broyden)= 0.30435E-02
  rms(prec ) = 0.40216E-02
  weight for this iteration     100.00

 eigenvalues of (default mixing * dielectric matrix)
  average eigenvalue GAMMA=   1.5285
  3.2529  2.2550  1.8484  1.0874  1.0874  1.1969  1.1969  0.8848  0.9465

 Free energy of the ion-electron system (eV)
  ---------------------------------------------------
  alpha Z        PSCENC =       872.70583573
  Ewald energy   TEWEN  =    -17758.35530966
  -Hartree energ DENC   =     -7631.28498355
  -exchange      EXHF   =         0.00000000
  -V(xc)+E(xc)   XCENC  =       945.22692688
  PAW double counting   =     23125.88288834   -24186.64761289
  entropy T*S    EENTRO =        -0.00000000
  eigenvalues    EBANDS =     -2985.41335807
  atomic energy  EATOM  =     26212.11861568
  Solvation  Ediel_sol  =         0.00000000
  ---------------------------------------------------
  free energy    TOTEN  =     -1405.76699754 eV

  energy without entropy =    -1405.76699754  energy(sigma->0) =    -1405.76699754


--------------------------------------------------------------------------------------------------------




--------------------------------------- Iteration      1(  15)  ---------------------------------------


    POTLOK:  cpu time    0.2609: real time    0.3198
    SETDIJ:  cpu time    1.2021: real time    1.2021
     EDDAV:  cpu time   18.6785: real time   18.6794
       DOS:  cpu time    0.0011: real time    0.0010
    CHARGE:  cpu time    2.7301: real time    2.7302
    MIXING:  cpu time    0.0018: real time    0.0018
    --------------------------------------------
      LOOP:  cpu time   22.8745: real time   22.9344

 eigenvalue-minimisations  :  4136
 total energy-change (2. order) :-0.3351557E-04  (-0.5412206E-05)
 number of electron     344.0000001 magnetization 
 augmentation part       -3.2683047 magnetization 

 Broyden mixing:
  rms(total) = 0.17540E-02    rms(broyden)= 0.17530E-02
  rms(prec ) = 0.23786E-02
  weight for this iteration     100.00

 eigenvalues of (default mixing * dielectric matrix)
  average eigenvalue GAMMA=   1.6056
  3.6054  2.4650  2.4650  1.1873  1.1873  1.2739  1.2739  0.9059  0.9059  0.7861

 Free energy of the ion-electron system (eV)
  ---------------------------------------------------
  alpha Z        PSCENC =       872.70583573
  Ewald energy   TEWEN  =    -17758.35530966
  -Hartree energ DENC   =     -7631.33182641
  -exchange      EXHF   =         0.00000000
  -V(xc)+E(xc)   XCENC  =       945.22209060
  PAW double counting   =     23125.39675210   -24186.15958290
  entropy T*S    EENTRO =        -0.00000000
  eigenvalues    EBANDS =     -2985.36360620
  atomic energy  EATOM  =     26212.11861568
  Solvation  Ediel_sol  =         0.00000000
  ---------------------------------------------------
  free energy    TOTEN  =     -1405.76703105 eV

  energy without entropy =    -1405.76703105  energy(sigma->0) =    -1405.76703105


--------------------------------------------------------------------------------------------------------




--------------------------------------- Iteration      1(  16)  ---------------------------------------


    POTLOK:  cpu time    0.2831: real time    0.3183
    SETDIJ:  cpu time    1.1987: real time    1.1987
     EDDAV:  cpu time   17.4496: real time   17.4505
       DOS:  cpu time    0.0004: real time    0.0004
    CHARGE:  cpu time    2.7264: real time    2.7266
    MIXING:  cpu time    0.0022: real time    0.0022
    --------------------------------------------
      LOOP:  cpu time   21.6605: real time   21.6968

 eigenvalue-minimisations  :  3712
 total energy-change (2. order) :-0.2468959E-04  (-0.3781437E-05)
 number of electron     344.0000001 magnetization 
 augmentation part       -3.2680569 magnetization 

 Broyden mixing:
  rms(total) = 0.51532E-03    rms(broyden)= 0.51212E-03
  rms(prec ) = 0.74198E-03
  weight for this iteration     100.00

 eigenvalues of (default mixing * dielectric matrix)
  average eigenvalue GAMMA=   1.6672
  4.2932  2.7177  2.4564  1.6501  1.0666  1.0666  1.1447  1.1447  1.0448  0.9556
  0.7989

 Free energy of the ion-electron system (eV)
  ---------------------------------------------------
  alpha Z        PSCENC =       872.70583573
  Ewald energy   TEWEN  =    -17758.35530966
  -Hartree energ DENC   =     -7631.43979104
  -exchange      EXHF   =         0.00000000
  -V(xc)+E(xc)   XCENC  =       945.21808348
  PAW double counting   =     23124.87270984   -24185.63022038
  entropy T*S    EENTRO =        -0.00000000
  eigenvalues    EBANDS =     -2985.25697939
  atomic energy  EATOM  =     26212.11861568
  Solvation  Ediel_sol  =         0.00000000
  ---------------------------------------------------
  free energy    TOTEN  =     -1405.76705574 eV

  energy without entropy =    -1405.76705574  energy(sigma->0) =    -1405.76705574


--------------------------------------------------------------------------------------------------------




--------------------------------------- Iteration      1(  17)  ---------------------------------------


    POTLOK:  cpu time    0.2661: real time    0.3177
    SETDIJ:  cpu time    1.1990: real time    1.1991
     EDDAV:  cpu time   18.7453: real time   18.7459
       DOS:  cpu time    0.0004: real time    0.0004
    CHARGE:  cpu time    2.7251: real time    2.7252
    MIXING:  cpu time    0.0020: real time    0.0020
    --------------------------------------------
      LOOP:  cpu time   22.9378: real time   22.9903

 eigenvalue-minimisations  :  4160
 total energy-change (2. order) :-0.1036260E-04  (-0.1184484E-05)
 number of electron     344.0000001 magnetization 
 augmentation part       -3.2679211 magnetization 

 Broyden mixing:
  rms(total) = 0.42037E-03    rms(broyden)= 0.41647E-03
  rms(prec ) = 0.47757E-03
  weight for this iteration     100.00

 eigenvalues of (default mixing * dielectric matrix)
  average eigenvalue GAMMA=   1.6075
  4.2784  2.8438  2.4164  1.7561  1.1123  1.1123  1.1565  1.1565  1.0081  1.0081
  0.7211  0.7211

 Free energy of the ion-electron system (eV)
  ---------------------------------------------------
  alpha Z        PSCENC =       872.70583573
  Ewald energy   TEWEN  =    -17758.35530966
  -Hartree energ DENC   =     -7631.42773712
  -exchange      EXHF   =         0.00000000
  -V(xc)+E(xc)   XCENC  =       945.21427626
  PAW double counting   =     23124.77769598   -24185.53471687
  entropy T*S    EENTRO =        -0.00000000
  eigenvalues    EBANDS =     -2985.26572612
  atomic energy  EATOM  =     26212.11861568
  Solvation  Ediel_sol  =         0.00000000
  ---------------------------------------------------
  free energy    TOTEN  =     -1405.76706610 eV

  energy without entropy =    -1405.76706610  energy(sigma->0) =    -1405.76706610


--------------------------------------------------------------------------------------------------------




--------------------------------------- Iteration      1(  18)  ---------------------------------------


    POTLOK:  cpu time    0.3190: real time    0.3227
    SETDIJ:  cpu time    1.1984: real time    1.1984
     EDDAV:  cpu time   14.4014: real time   14.4020
       DOS:  cpu time    0.0005: real time    0.0005
    CHARGE:  cpu time    2.7306: real time    2.7306
    MIXING:  cpu time    0.0020: real time    0.0020
    --------------------------------------------
      LOOP:  cpu time   18.6518: real time   18.6563

 eigenvalue-minimisations  :  2640
 total energy-change (2. order) : 0.3307159E-05  (-0.1337321E-06)
 number of electron     344.0000001 magnetization 
 augmentation part       -3.2679311 magnetization 

 Broyden mixing:
  rms(total) = 0.24233E-03    rms(broyden)= 0.23554E-03
  rms(prec ) = 0.27754E-03
  weight for this iteration     100.00

 eigenvalues of (default mixing * dielectric matrix)
  average eigenvalue GAMMA=   1.6475
  4.5791  2.9507  2.4036  1.8828  1.2188  1.2188  1.2022  1.2022  0.8099  1.0279
  1.0279  0.9469  0.9469

 Free energy of the ion-electron system (eV)
  ---------------------------------------------------
  alpha Z        PSCENC =       872.70583573
  Ewald energy   TEWEN  =    -17758.35530966
  -Hartree energ DENC   =     -7631.42623419
  -exchange      EXHF   =         0.00000000
  -V(xc)+E(xc)   XCENC  =       945.21401783
  PAW double counting   =     23124.85390513   -24185.60956955
  entropy T*S    EENTRO =        -0.00000000
  eigenvalues    EBANDS =     -2985.26832377
  atomic energy  EATOM  =     26212.11861568
  Solvation  Ediel_sol  =         0.00000000
  ---------------------------------------------------
  free energy    TOTEN  =     -1405.76706280 eV

  energy without entropy =    -1405.76706280  energy(sigma->0) =    -1405.76706280


--------------------------------------------------------------------------------------------------------




--------------------------------------- Iteration      1(  19)  ---------------------------------------


    POTLOK:  cpu time    0.3074: real time    0.3170
    SETDIJ:  cpu time    1.1979: real time    1.1979
     EDDAV:  cpu time   13.2450: real time   13.2457
       DOS:  cpu time    0.0004: real time    0.0004
    CHARGE:  cpu time    2.7293: real time    2.7294
    MIXING:  cpu time    0.0024: real time    0.0024
    --------------------------------------------
      LOOP:  cpu time   17.4824: real time   17.4929

 eigenvalue-minimisations  :  2240
 total energy-change (2. order) : 0.2512966E-05  (-0.4516247E-07)
 number of electron     344.0000001 magnetization 
 augmentation part       -3.2679477 magnetization 

 Broyden mixing:
  rms(total) = 0.12333E-03    rms(broyden)= 0.10941E-03
  rms(prec ) = 0.12915E-03
  weight for this iteration     100.00
  WARNING: grid for Broyden might be to small

 eigenvalues of (default mixing * dielectric matrix)
  average eigenvalue GAMMA=   1.6518
  4.7076  3.0022  2.3601  2.2007  1.6226  1.1212  1.1212  1.1848  1.1848  1.0725
  0.9685  0.9685  0.8049  0.8049

 Free energy of the ion-electron system (eV)
  ---------------------------------------------------
  alpha Z        PSCENC =       872.70583573
  Ewald energy   TEWEN  =    -17758.35530966
  -Hartree energ DENC   =     -7631.42985646
  -exchange      EXHF   =         0.00000000
  -V(xc)+E(xc)   XCENC  =       945.21403278
  PAW double counting   =     23124.89758445   -24185.65297266
  entropy T*S    EENTRO =        -0.00000000
  eigenvalues    EBANDS =     -2985.26499015
  atomic energy  EATOM  =     26212.11861568
  Solvation  Ediel_sol  =         0.00000000
  ---------------------------------------------------
  free energy    TOTEN  =     -1405.76706028 eV

  energy without entropy =    -1405.76706028  energy(sigma->0) =    -1405.76706028


--------------------------------------------------------------------------------------------------------




--------------------------------------- Iteration      1(  20)  ---------------------------------------


    POTLOK:  cpu time    0.2899: real time    0.3156
    SETDIJ:  cpu time    1.1998: real time    1.1998
     EDDAV:  cpu time   12.9298: real time   12.9303
       DOS:  cpu time    0.0004: real time    0.0004
    --------------------------------------------
      LOOP:  cpu time   14.4198: real time   14.4461

 eigenvalue-minimisations  :  2128
 total energy-change (2. order) : 0.9540959E-06  (-0.2571009E-07)
 number of electron     344.0000001 magnetization 
 augmentation part       -3.2679477 magnetization 

 Free energy of the ion-electron system (eV)
  ---------------------------------------------------
  alpha Z        PSCENC =       872.70583573
  Ewald energy   TEWEN  =    -17758.35530966
  -Hartree energ DENC   =     -7631.43003316
  -exchange      EXHF   =         0.00000000
  -V(xc)+E(xc)   XCENC  =       945.21415034
  PAW double counting   =     23124.91290062   -24185.66789902
  entropy T*S    EENTRO =        -0.00000000
  eigenvalues    EBANDS =     -2985.26531987
  atomic energy  EATOM  =     26212.11861568
  Solvation  Ediel_sol  =         0.00000000
  ---------------------------------------------------
  free energy    TOTEN  =     -1405.76705933 eV

  energy without entropy =    -1405.76705933  energy(sigma->0) =    -1405.76705933


--------------------------------------------------------------------------------------------------------




 average (electrostatic) potential at core
  the test charge radii are     1.1312  1.1541  1.0178
  (the norm of the test charge is              1.0000)
       1 -55.2831       2 -55.1387       3 -55.1446       4 -55.3198       5 -55.1971
       6 -55.1090       7 -55.0290       8 -55.4437       9-101.5450      10-101.7975
      11-101.6048      12-101.6658      13-101.8048      14-101.9209      15-101.2724
      16-101.7059      17 -69.0273      18 -69.1252      19 -68.9354      20 -69.2250
      21 -68.9856      22 -68.9661      23 -69.1061      24 -68.9521      25 -68.9034
      26 -69.0107      27 -68.8664      28 -69.0130      29 -68.9245      30 -69.0107
      31 -68.9698      32 -68.9560      33 -68.9764      34 -68.9879      35 -68.7023
      36 -69.0662      37 -69.2439      38 -69.1057      39 -69.6760



 E-fermi :   0.8186     XC(G=0):  -7.9314     alpha+bet : -6.9586


 k-point     1 :       0.0000    0.0000    0.0000
  band No.  band energies     occupation 
      1     -20.9664      2.00000
      2     -20.8479      2.00000
      3     -20.8148      2.00000
      4     -20.7265      2.00000
      5     -20.7003      2.00000
      6     -20.6690      2.00000
      7     -20.6455      2.00000
      8     -20.6385      2.00000
      9     -17.0199      2.00000
     10     -16.6722      2.00000
     11     -16.6463      2.00000
     12     -16.5850      2.00000
     13     -16.5778      2.00000
     14     -16.5709      2.00000
     15     -16.5697      2.00000
     16     -16.5569      2.00000
     17     -16.5485      2.00000
     18     -16.5453      2.00000
     19     -16.5199      2.00000
     20     -16.4906      2.00000
     21     -16.4795      2.00000
     22     -16.4751      2.00000
     23     -16.4597      2.00000
     24     -16.4584      2.00000
     25     -16.4535      2.00000
     26     -16.4516      2.00000
     27     -16.4448      2.00000
     28     -16.4294      2.00000
     29     -16.4265      2.00000
     30     -16.4258      2.00000
     31     -16.3902      2.00000
     32     -16.3693      2.00000
     33     -16.3679      2.00000
     34     -16.3365      2.00000
     35     -16.3323      2.00000
     36     -16.3258      2.00000
     37     -16.3198      2.00000
     38     -16.3137      2.00000
     39     -16.2693      2.00000
     40     -16.2607      2.00000
     41     -16.2559      2.00000
     42     -16.2163      2.00000
     43     -16.2128      2.00000
     44     -16.2022      2.00000
     45     -16.1291      2.00000
     46     -16.0594      2.00000
     47     -16.0238      2.00000
     48     -15.9480      2.00000
     49     -14.7694      2.00000
     50     -14.6984      2.00000
     51     -14.3422      2.00000
     52     -14.2584      2.00000
     53     -14.2127      2.00000
     54     -14.1717      2.00000
     55     -14.1589      2.00000
     56     -14.0882      2.00000
     57     -14.0470      2.00000
     58     -14.0419      2.00000
     59     -14.0297      2.00000
     60     -14.0284      2.00000
     61     -14.0074      2.00000
     62     -13.9947      2.00000
     63     -13.9847      2.00000
     64     -13.9371      2.00000
     65     -13.9287      2.00000
     66     -13.8984      2.00000
     67     -13.7996      2.00000
     68     -13.7685      2.00000
     69     -13.7233      2.00000
     70     -13.7041      2.00000
     71     -13.3698      2.00000
     72      -8.1978      2.00000
     73      -7.8994      2.00000
     74      -7.7684      2.00000
     75      -7.7036      2.00000
     76      -7.4243      2.00000
     77      -7.3921      2.00000
     78      -7.3688      2.00000
     79      -7.3514      2.00000
     80      -7.3269      2.00000
     81      -7.2772      2.00000
     82      -7.2567      2.00000
     83      -7.2361      2.00000
     84      -7.2295      2.00000
     85      -7.2091      2.00000
     86      -7.1967      2.00000
     87      -7.1669      2.00000
     88      -7.1493      2.00000
     89      -7.1374      2.00000
     90      -7.1238      2.00000
     91      -7.1216      2.00000
     92      -7.1166      2.00000
     93      -7.0984      2.00000
     94      -7.0848      2.00000
     95      -7.0785      2.00000
     96      -7.0721      2.00000
     97      -7.0605      2.00000
     98      -7.0496      2.00000
     99      -7.0413      2.00000
    100      -7.0235      2.00000
    101      -7.0019      2.00000
    102      -6.8922      2.00000
    103      -6.5851      2.00000
    104      -3.5839      2.00000
    105      -3.4453      2.00000
    106      -3.3770      2.00000
    107      -3.3165      2.00000
    108      -3.2626      2.00000
    109      -3.2434      2.00000
    110      -3.2120      2.00000
    111      -3.1672      2.00000
    112      -3.0796      2.00000
    113      -3.0660      2.00000
    114      -3.0080      2.00000
    115      -2.8675      2.00000
    116      -2.6342      2.00000
    117      -2.3599      2.00000
    118      -2.2793      2.00000
    119      -2.1783      2.00000
    120      -2.1138      2.00000
    121      -2.0910      2.00000
    122      -1.9962      2.00000
    123      -1.9697      2.00000
    124      -1.9252      2.00000
    125      -1.8738      2.00000
    126      -1.8197      2.00000
    127      -1.8029      2.00000
    128      -1.7697      2.00000
    129      -1.7375      2.00000
    130      -1.7066      2.00000
    131      -1.6460      2.00000
    132      -1.6172      2.00000
    133      -1.5915      2.00000
    134      -1.5468      2.00000
    135      -1.5334      2.00000
    136      -1.5226      2.00000
    137      -1.4924      2.00000
    138      -1.4810      2.00000
    139      -1.4642      2.00000
    140      -1.4418      2.00000
    141      -1.4341      2.00000
    142      -1.4130      2.00000
    143      -1.3955      2.00000
    144      -1.3803      2.00000
    145      -1.3674      2.00000
    146      -1.3528      2.00000
    147      -1.3298      2.00000
    148      -1.3243      2.00000
    149      -1.3117      2.00000
    150      -1.2894      2.00000
    151      -1.2756      2.00000
    152      -1.2640      2.00000
    153      -1.2562      2.00000
    154      -1.2053      2.00000
    155      -1.1981      2.00000
    156      -1.1545      2.00000
    157      -1.1291      2.00000
    158      -1.1008      2.00000
    159      -1.0576      2.00000
    160      -1.0519      2.00000
    161      -0.9844      2.00000
    162      -0.9144      2.00000
    163      -0.8775      2.00000
    164      -0.8370      2.00000
    165      -0.7565      2.00000
    166      -0.6924      2.00000
    167      -0.6042      2.00000
    168      -0.2873      2.00000
    169      -0.1841      2.00000
    170      -0.0464      2.00000
    171       0.3849      2.00000
    172       0.7102      2.00000
    173       2.6007      0.00000
    174       2.7965      0.00000
    175       2.8409      0.00000
    176       2.9324      0.00000
    177       3.0693      0.00000
    178       3.0946      0.00000
    179       3.2086      0.00000
    180       3.2697      0.00000
    181       3.3757      0.00000
    182       3.4501      0.00000
    183       3.5843      0.00000
    184       3.6221      0.00000
    185       4.2390      0.00000
    186       4.8276      0.00000
    187       5.2987      0.00000
    188       5.4238      0.00000
    189       5.6596      0.00000
    190       5.7041      0.00000
    191       5.8190      0.00000
    192       5.8270      0.00000
    193       5.9029      0.00000
    194       5.9597      0.00000
    195       5.9754      0.00000
    196       6.0520      0.00000
    197       6.0614      0.00000
    198       6.1086      0.00000
    199       6.1972      0.00000
    200       6.2419      0.00000
    201       6.2832      0.00000
    202       6.3411      0.00000
    203       6.3658      0.00000
    204       6.4258      0.00000
    205       6.5382      0.00000
    206       6.5825      0.00000
    207       6.6227      0.00000
    208       6.7176      0.00000

 k-point     2 :       0.5000    0.0000    0.0000
  band No.  band energies     occupation 
      1     -20.9664      2.00000
[...]


--------------------------------------------------------------------------------------------------------


 soft charge-density along one line, spin component           1
         0         1         2         3         4         5         6         7         8         9
 total charge-density along one line

 pseudopotential strength for first ion, spin component:           1
 17.973  -4.705   0.004   0.002  -0.001  -0.006  -0.002   0.002
 -4.705   1.240  -0.001  -0.000   0.000   0.001   0.000  -0.000
  0.004  -0.001   2.265   0.001   0.000  -2.710  -0.002  -0.001
  0.002  -0.000   0.001   2.265  -0.001  -0.002  -2.710   0.001
 -0.001   0.000   0.000  -0.001   2.264  -0.001   0.001  -2.708
 -0.006   0.001  -2.710  -0.002  -0.001   3.209   0.002   0.001
 -0.002   0.000  -0.002  -2.710   0.001   0.002   3.209  -0.001
  0.002  -0.000  -0.001   0.001  -2.708   0.001  -0.001   3.207
  0.001  -0.000   0.001   0.000   0.002  -0.001  -0.000  -0.002
  0.001  -0.000   0.002   0.002   0.000  -0.002  -0.003  -0.000
  0.000  -0.000  -0.001  -0.000   0.000   0.002   0.000  -0.000
 -0.001   0.000   0.000  -0.001   0.002  -0.000   0.001  -0.002
 -0.001   0.000  -0.003  -0.000  -0.002   0.004   0.000   0.002
 total augmentation occupancy for first ion, spin component:           1
  1.912  -0.137   0.001   0.001  -0.000   0.002   0.001  -0.001   0.001   0.002   0.000  -0.001  -0.001
 -0.137   0.120   0.013   0.004  -0.002  -0.005  -0.002   0.002  -0.001  -0.002  -0.002   0.005   0.001
  0.001   0.013   2.019   0.004   0.001   0.006   0.003   0.001   0.002   0.004  -0.002   0.001  -0.005
  0.001   0.004   0.004   2.019  -0.002   0.003   0.005  -0.001   0.001   0.005  -0.002  -0.001  -0.001
 -0.000  -0.002   0.001  -0.002   2.016   0.001  -0.001   0.003   0.003   0.001   0.000   0.003  -0.003
  0.002  -0.005   0.006   0.003   0.001   0.008  -0.001  -0.000  -0.001  -0.002   0.000  -0.000   0.001
  0.001  -0.002   0.003   0.005  -0.001  -0.001   0.008   0.001  -0.000  -0.001   0.002   0.000   0.001
 -0.001   0.002   0.001  -0.001   0.003  -0.000   0.001   0.009  -0.001  -0.000  -0.001  -0.001   0.002
  0.001  -0.001   0.002   0.001   0.003  -0.001  -0.000  -0.001   0.007   0.001  -0.000   0.000   0.001
  0.002  -0.002   0.004   0.005   0.001  -0.002  -0.001  -0.000   0.001   0.004   0.000  -0.000   0.001
  0.000  -0.002  -0.002  -0.002   0.000   0.000   0.002  -0.001  -0.000   0.000   0.006  -0.001  -0.001
 -0.001   0.005   0.001  -0.001   0.003  -0.000   0.000  -0.001   0.000  -0.000  -0.001   0.004   0.001
 -0.001   0.001  -0.005  -0.001  -0.003   0.001   0.001   0.002   0.001   0.001  -0.001   0.001   0.004


------------------------ aborting loop because EDIFF is reached ----------------------------------------





 total charge     

# of ion       s       p       d       tot
------------------------------------------
    1        1.786   4.717   0.019   6.521
    2        1.786   4.716   0.018   6.520
    3        1.789   4.718   0.024   6.530
    4        1.786   4.716   0.018   6.519
    5        1.786   4.716   0.018   6.520
    6        1.786   4.717   0.018   6.520
    7        1.795   4.719   0.040   6.554
    8        1.785   4.716   0.017   6.518
    9        1.554   0.426   9.835  11.815
   10        1.533   0.434   9.830  11.797
   11        1.553   0.413   9.833  11.799
   12        1.554   0.417   9.834  11.804
   13        1.527   0.444   9.830  11.801
   14        1.534   0.424   9.827  11.786
   15        1.536   0.548   9.853  11.936
   16        1.528   0.563   9.851  11.943
   17        1.615   3.282   0.007   4.903
   18        1.614   3.286   0.007   4.907
   19        1.615   3.288   0.007   4.910
   20        1.618   3.271   0.008   4.896
   21        1.614   3.289   0.007   4.910
   22        1.614   3.280   0.006   4.900
   23        1.615   3.282   0.007   4.904
   24        1.616   3.280   0.007   4.902
   25        1.615   3.281   0.006   4.903
   26        1.639   3.350   0.037   5.025
   27        1.614   3.278   0.005   4.897
   28        1.614   3.284   0.006   4.904
   29        1.614   3.286   0.006   4.906
   30        1.614   3.278   0.006   4.899
   31        1.614   3.284   0.006   4.904
   32        1.614   3.279   0.006   4.899
   33        1.614   3.279   0.006   4.900
   34        1.615   3.285   0.007   4.906
   35        1.629   3.291   0.019   4.939
   36        1.614   3.278   0.006   4.898
   37        1.617   3.265   0.008   4.889
   38        1.617   3.265   0.007   4.890
   39        1.624   3.331   0.021   4.976
--------------------------------------------------
tot         63.804 116.974  79.072 259.851

    CHARGE:  cpu time    0.3971: real time    0.3972
    FORLOC:  cpu time    0.0114: real time    0.0114
    FORNL :  cpu time    1.9345: real time    1.9347
    STRESS:  cpu time   50.3742: real time   50.3761
    FORCOR:  cpu time    0.2413: real time    0.2414
    FORHAR:  cpu time    0.0278: real time    0.0278
    MIXING:  cpu time    0.0024: real time    0.0024
    OFIELD:  cpu time    0.0000: real time    0.0000

  FORCE on cell =-STRESS in cart. coord.  units (eV):
  Direction    XX          YY          ZZ          XY          YZ          ZX
  --------------------------------------------------------------------------------------
  Alpha Z   872.70584   872.70584   872.70584
  Ewald   -6082.49837 -5673.01201 -6002.92368   150.87223  -149.03722   529.29351
  Hartree  2449.65350  2682.05446  2499.72136    78.78844   -77.93012   382.36223
  E(xc)   -1450.77650 -1450.62210 -1450.86835     0.14163    -0.19199     0.10052
  Local   -2759.91856 -3402.11628 -2891.54758  -227.39852   225.87978  -912.23069
  n-local  1750.10959  1757.68788  1755.48640     4.24511    -2.95654     1.94567
  augment   818.23845   817.58071   817.61808     0.14589     0.00408     1.25963
  Kinetic  4407.53707  4404.12148  4404.74114    -3.51549     0.00836    -4.24581
  Fock        0.00000     0.00000     0.00000     0.00000     0.00000     0.00000
  -------------------------------------------------------------------------------------
  Total       5.05101     8.39997     4.93321     3.27929    -4.22366    -1.51493
  in kB       5.07346     8.43731     4.95514     3.29386    -4.24243    -1.52167
  external pressure =        6.16 kB  Pullay stress =        0.00 kB


 VOLUME and BASIS-vectors are now :
 -----------------------------------------------------------------------------
  energy-cutoff  :      300.00
  volume of cell :     1595.09
      direct lattice vectors                 reciprocal lattice vectors
     8.456489000  0.000000000  8.040301000     0.059126193 -0.000000000  0.062186727
     0.000000000 11.729847000  0.000000000     0.000000000  0.085252604 -0.000000000
    -8.456489000  0.000000000  8.040301000    -0.059126193  0.000000000  0.062186727

  length of vectors
    11.668703715 11.729847000 11.668703715     0.085808482  0.085252604  0.085808482


 FORCES acting on ions
    electron-ion (+dipol)            ewald-force                    non-local-force                 convergence-correction
 -----------------------------------------------------------------------------------------------
   0.188E+02 -.470E+02 -.526E+02   -.187E+02 0.466E+02 0.524E+02   -.955E-01 0.368E+00 0.114E+00   -.659E-04 0.332E-03 0.104E-03
   0.986E+01 -.214E+01 0.162E+02   -.982E+01 0.204E+01 -.160E+02   -.747E-01 0.803E-01 -.212E+00   -.158E-03 0.301E-03 -.410E-03
   0.379E+02 0.117E+02 0.922E+01   -.376E+02 -.117E+02 -.920E+01   0.917E-01 0.156E+00 0.351E-01   0.910E-04 -.333E-03 0.779E-05
   -.471E+02 0.299E+02 -.121E+02   0.472E+02 -.296E+02 0.124E+02   -.871E-01 -.280E+00 -.238E+00   0.176E-03 -.192E-03 0.140E-03
   0.149E+02 -.154E+02 0.198E+02   -.149E+02 0.153E+02 -.199E+02   0.617E-01 0.113E+00 0.654E-01   0.416E-03 0.277E-03 0.222E-03
   0.526E+02 -.138E+02 0.690E+01   -.525E+02 0.138E+02 -.703E+01   -.111E+00 0.321E-01 0.110E+00   -.192E-03 0.428E-03 -.331E-05
   -.447E+02 -.371E+02 0.974E+02   0.443E+02 0.378E+02 -.973E+02   0.606E-01 0.849E+00 -.947E+00   -.220E-03 -.200E-03 -.927E-04
   -.626E+02 0.430E+02 -.379E+02   0.622E+02 -.426E+02 0.377E+02   0.418E+00 -.426E+00 0.248E+00   -.103E-03 -.392E-03 0.501E-04
   -.150E+02 -.215E+01 -.207E+02   0.147E+02 0.199E+01 0.218E+02   0.339E+00 0.162E+00 -.105E+01   -.281E-03 -.111E-04 0.126E-03
   -.383E+01 0.111E+03 -.173E+02   0.390E+01 -.117E+03 0.180E+02   -.220E-01 0.584E+01 -.661E+00   0.505E-04 0.119E-02 -.150E-03
   0.425E+01 0.160E+02 -.642E+00   -.336E+01 -.155E+02 0.382E+00   -.823E+00 -.496E+00 0.206E+00   0.277E-04 0.149E-03 0.157E-03
   -.614E+00 -.484E+01 -.139E+01   0.101E+00 0.484E+01 0.790E+00   0.464E+00 0.257E-01 0.612E+00   0.178E-03 -.420E-05 -.252E-03
   0.159E+03 -.275E+02 -.496E+02   -.164E+03 0.282E+02 0.525E+02   0.516E+01 -.839E+00 -.285E+01   0.100E-02 -.361E-03 -.571E-03
   0.492E+02 -.138E+02 -.510E+02   -.529E+02 0.146E+02 0.534E+02   0.403E+01 -.917E+00 -.271E+01   0.135E-02 -.169E-03 -.130E-02
   -.886E+02 0.155E+02 -.116E+03   0.888E+02 -.166E+02 0.125E+03   -.231E+00 0.795E+00 -.746E+01   -.414E-03 -.673E-04 0.492E-03
   0.185E+02 0.113E+02 0.611E+02   -.242E+02 -.216E+02 -.596E+02   0.384E+01 0.750E+01 -.407E+00   -.266E-03 -.574E-03 0.965E-04
   0.243E+02 0.116E+02 0.384E+02   -.243E+02 -.117E+02 -.388E+02   -.487E-01 0.170E-01 0.372E+00   0.411E-04 -.261E-03 0.811E-04
   0.316E+02 0.212E+02 0.126E+02   -.318E+02 -.212E+02 -.128E+02   0.160E+00 -.731E-01 0.156E+00   0.163E-03 -.236E-03 -.186E-03
   -.186E+02 0.118E+01 0.236E+02   0.186E+02 -.116E+01 -.239E+02   0.530E-02 -.170E+00 0.297E+00   -.227E-03 0.275E-03 0.110E-03
   -.150E+02 -.377E+02 0.577E+02   0.150E+02 0.382E+02 -.579E+02   0.113E+00 -.109E+01 0.594E-01   0.891E-04 0.333E-03 0.115E-03
   -.999E+01 0.115E+01 -.528E+02   0.986E+01 -.114E+01 0.530E+02   0.124E+00 0.126E+00 -.837E-01   -.171E-03 -.292E-03 0.147E-03
   0.176E+02 -.113E+02 -.373E+02   -.175E+02 0.113E+02 0.376E+02   -.723E-01 0.491E-01 -.245E+00   0.230E-04 0.252E-03 0.658E-04
   -.949E+01 -.185E+02 -.406E+02   0.950E+01 0.185E+02 0.409E+02   -.388E-02 0.601E-01 -.323E+00   0.228E-03 0.202E-03 -.225E-03
   -.231E+02 0.146E+01 0.547E+01   0.232E+02 -.161E+01 -.555E+01   0.236E+00 0.148E+00 0.156E+00   -.423E-07 0.544E-04 0.248E-03
   -.191E+02 0.131E+02 0.231E+02   0.193E+02 -.131E+02 -.234E+02   0.207E-01 -.297E+00 0.654E+00   -.526E-04 0.183E-05 -.253E-03
   -.923E+02 0.246E+00 0.162E+03   0.933E+02 -.347E+00 -.165E+03   0.330E+01 -.980E+00 -.526E+00   -.282E-03 -.134E-03 -.260E-04
   -.237E+02 0.794E+01 -.104E+02   0.238E+02 -.787E+01 0.107E+02   -.141E+00 -.517E-01 -.309E+00   0.225E-04 0.155E-03 -.111E-03
   -.151E+02 -.177E+02 -.303E+02   0.152E+02 0.178E+02 0.304E+02   -.141E+00 -.144E+00 -.183E-01   -.830E-04 0.245E-04 0.529E-04
   0.373E+02 0.592E+01 -.887E+01   -.374E+02 -.598E+01 0.906E+01   0.130E+00 0.797E-01 -.185E+00   -.154E-03 0.943E-05 -.324E-04
   -.150E+01 0.390E+02 -.439E+02   0.135E+01 -.392E+02 0.443E+02   0.120E+00 0.153E+00 -.354E+00   0.216E-03 -.226E-04 -.169E-04
   -.321E+02 -.899E+01 0.219E+02   0.323E+02 0.914E+01 -.222E+02   -.228E+00 -.148E+00 0.304E+00   0.562E-04 0.568E-04 0.190E-03
   -.414E+01 -.156E+01 0.250E+02   0.441E+01 0.170E+01 -.251E+02   -.232E+00 -.136E+00 0.117E+00   -.719E-04 0.159E-03 -.125E-03
   0.293E+02 0.424E+02 0.817E+01   -.296E+02 -.426E+02 -.844E+01   0.267E+00 0.692E-01 0.249E+00   0.119E-04 0.767E-06 0.140E-03
   0.938E+01 0.219E+02 0.439E+02   -.960E+01 -.221E+02 -.443E+02   0.250E+00 0.170E+00 0.370E+00   0.176E-04 -.249E-05 -.116E-03
   0.112E+03 -.792E+01 -.443E+02   -.112E+03 0.800E+01 0.445E+02   -.302E+01 -.857E-01 0.801E+00   -.238E-03 -.128E-03 0.135E-03
   0.453E+01 -.326E+02 -.211E+02   -.473E+01 0.328E+02 0.213E+02   0.851E-01 -.539E-01 -.325E+00   0.521E-03 -.880E-04 0.262E-04
   -.322E+02 0.316E+01 0.296E+02   0.328E+02 -.341E+01 -.296E+02   -.757E+00 0.267E+00 -.122E+00   0.147E-04 -.542E-05 -.247E-03
   -.293E+02 0.141E+02 -.532E+02   0.296E+02 -.141E+02 0.530E+02   -.111E+01 0.965E-01 0.834E+00   -.723E-04 0.873E-04 0.124E-03
   -.544E+02 -.135E+03 0.532E+02   0.559E+02 0.138E+03 -.537E+02   -.220E+00 0.115E+01 -.659E+00   -.145E-03 -.459E-03 -.317E-05
 -----------------------------------------------------------------------------------------------
   -.119E+02 -.122E+02 0.140E+02   0.284E-13 -.284E-13 0.171E-12   0.119E+02 0.121E+02 -.139E+02   0.150E-02 0.351E-03 -.129E-02


 POSITION                                       TOTAL-FORCE (eV/Angst)
 -----------------------------------------------------------------------------------
      0.49700      2.79021      3.60283        -0.001742     -0.051748     -0.035729
      0.48125      2.86530     11.99318        -0.044159     -0.022678     -0.041811
      4.26963      8.93622      8.22835         0.417834      0.147193      0.044317
     -4.85687      8.79878      7.79576        -0.005218      0.050980      0.044576
     -3.66712      2.94755      8.29659         0.055162     -0.008946      0.046362
      4.71530      2.87652      8.13930         0.010537      0.028389     -0.018010
     -0.59228      8.81904     12.39084        -0.320613      1.529267     -0.765186
     -0.59811      8.84502      4.04596         0.030234      0.013379      0.036835
      0.00350      0.00942     16.04916        -0.017361      0.016862     -0.017816
      0.10196      0.02769      7.93635         0.027907      0.165428     -0.018545
     -4.22583      0.01398     11.96792         0.065898      0.019543     -0.039453
     -4.23186      0.00442      4.10287        -0.044945      0.030540     -0.004979
      4.20714      5.93450      4.05410         0.259364     -0.065063      0.068843
     -4.21019      5.79138      4.09916         0.275686     -0.128351     -0.272272
      8.43930      5.84115      8.05514        -0.047876     -0.397947      2.512919
     -0.00604      5.72685      8.14047        -1.877710     -2.908779      1.050826
     -4.11930      8.82209     11.41781        -0.041515      0.001151     -0.009978
      4.15812      8.75984     11.80376        -0.027150     -0.085741      0.049253
     -0.08704      2.93372     15.62696         0.014280     -0.158423      0.012480
      0.01859      2.83813      7.33301         0.045283     -0.648615     -0.088584
     -0.09550      8.79120      0.38770         0.002209      0.140617      0.073591
      4.10935      2.98839      4.44111        -0.014018      0.001464     -0.002476
     -4.32491      2.90300      4.71317        -0.001874      0.073690      0.013237
     -5.97324      5.52272      9.66317         0.309030      0.004372      0.077112
      2.47733      5.32333      9.73563         0.255748     -0.308410      0.394454
     -0.06346      6.21852     13.65627         4.250222     -1.099591     -3.391398
     -1.63947      0.36928     10.35022        -0.005205      0.021890     -0.022925
     -1.83875      0.28913      2.34643        -0.007309     -0.020243      0.037032
      5.98059     11.45832      6.33821        -0.020132      0.018389     -0.015801
     -2.46785     11.25828      6.45666        -0.030538     -0.032918     -0.025440
     -5.88885      0.35477      9.50805         0.016119     -0.004444      0.013308
      2.52211      0.34011      9.62143         0.023576     -0.002580      0.020527
      1.68560     11.42153      5.42778        -0.009189     -0.088598      0.007326
      1.63872     11.36219     13.61745         0.047039     -0.012061     -0.004924
      5.87493      6.20880      6.49185        -3.713662     -0.005916      0.983056
     -2.48920      6.24777      6.53979        -0.097753      0.096589     -0.139955
     -1.79278      5.58531     10.61120        -0.214267      0.035345     -0.060276
     -1.73975      5.50171      2.47597        -0.787188      0.054174      0.665535
      1.20781      7.76289      7.71665         1.223294      3.601791     -1.176032
 -----------------------------------------------------------------------------------
    total drift:                                0.004056     -0.054143      0.081714


--------------------------------------------------------------------------------------------------------



  FREE ENERGIE OF THE ION-ELECTRON SYSTEM (eV)
  ---------------------------------------------------
  free  energy   TOTEN  =     -1405.76705933 eV

  energy  without entropy=    -1405.76705933  energy(sigma->0) =    -1405.76705933



--------------------------------------------------------------------------------------------------------


    POTLOK:  cpu time    1.4360: real time    1.4360


--------------------------------------------------------------------------------------------------------


 stress matrix after NEB project (eV)
      5.05101      3.27901     -1.51493
      3.27929      8.39997     -4.22354
     -1.51458     -4.22366      4.93321
  FORCES: max atom, RMS     5.547528    1.489882
  FORCE total and by dimension    9.304309    4.250222
  Stress total and by dimension   13.497447    8.399975
     LOOP+:  cpu time  476.8035: real time  477.4477
    4ORBIT:  cpu time    0.0000: real time    0.0000



 total charge     

# of ion       s       p       d       tot
------------------------------------------
    1        1.786   4.717   0.019   6.521
    2        1.786   4.716   0.018   6.520
    3        1.789   4.718   0.024   6.530
    4        1.786   4.716   0.018   6.519
    5        1.786   4.716   0.018   6.520
    6        1.786   4.717   0.018   6.520
    7        1.795   4.719   0.040   6.554
    8        1.785   4.716   0.017   6.518
    9        1.554   0.426   9.835  11.815
   10        1.533   0.434   9.830  11.797
   11        1.553   0.413   9.833  11.799
   12        1.554   0.417   9.834  11.804
   13        1.527   0.444   9.830  11.801
   14        1.534   0.424   9.827  11.786
   15        1.536   0.548   9.853  11.936
   16        1.528   0.563   9.851  11.943
   17        1.615   3.282   0.007   4.903
   18        1.614   3.286   0.007   4.907
   19        1.615   3.288   0.007   4.910
   20        1.618   3.271   0.008   4.896
   21        1.614   3.289   0.007   4.910
   22        1.614   3.280   0.006   4.900
   23        1.615   3.282   0.007   4.904
   24        1.616   3.280   0.007   4.902
   25        1.615   3.281   0.006   4.903
   26        1.639   3.350   0.037   5.025
   27        1.614   3.278   0.005   4.897
   28        1.614   3.284   0.006   4.904
   29        1.614   3.286   0.006   4.906
   30        1.614   3.278   0.006   4.899
   31        1.614   3.284   0.006   4.904
   32        1.614   3.279   0.006   4.899
   33        1.614   3.279   0.006   4.900
   34        1.615   3.285   0.007   4.906
   35        1.629   3.291   0.019   4.939
   36        1.614   3.278   0.006   4.898
   37        1.617   3.265   0.008   4.889
   38        1.617   3.265   0.007   4.890
   39        1.624   3.331   0.021   4.976
--------------------------------------------------
tot         63.804 116.974  79.072 259.851


 total amount of memory used by VASP MPI-rank0    60644. kBytes
=======================================================================

   base      :      30000. kBytes
   nonlr-proj:       6479. kBytes
   fftplans  :       8423. kBytes
   grid      :       7465. kBytes
   one-center:         77. kBytes
   wavefun   :       8200. kBytes

  
  
 General timing and accounting informations for this job:
 ========================================================
  
                  Total CPU time used (sec):      489.193
                            User time (sec):      487.741
                          System time (sec):        1.452
                         Elapsed time (sec):      490.260
  
                   Maximum memory used (kb):       78120.
                   Average memory used (kb):           0.
  
                          Minor page faults:        20890
                          Major page faults:            1
                 Voluntary context switches:         1820
