<?xml version="1.0" encoding="ISO-8859-1"?>
<modeling>
 <generator>
  <i name="program" type="string">vasp </i>
  <i name="version" type="string">5.4.4.18Apr17-6-g9f103f2a35  </i>
  <i name="subversion" type="string">(build Jun 22 2020 09:27:21) complex            parallel </i>
  <i name="platform" type="string">tx2_gcc-7.3_libsci-18.07_cray-fftw-3.3.8 </i>
  <i name="date" type="string">2021 10 12 </i>
  <i name="time" type="string">01:33:33 </i>
 </generator>
 <incar>
  <i type="string" name="SYSTEM"> CsPbBr3 cubic bulk</i>
  <i type="string" name="PREC">accurate</i>
  <i type="string" name="ALGO"> NORMAL   ! Electronic minimisation algo</i>
  <i type="logical" name="ADDGRID"> T  </i>
  <i type="int" name="ISPIN">     1</i>
  <i type="int" name="NELM">   200</i>
  <i type="int" name="IBRION">     2</i>
  <i name="EDIFF">      0.00000100</i>
  <i name="EDIFFG">     -0.01000000</i>
  <i type="int" name="NSW">     0</i>
  <i type="int" name="ISIF">     2</i>
  <i type="int" name="ISYM">     0</i>
  <i name="ENCUT">    300.00000000</i>
  <i name="POTIM">      0.50000000</i>
  <i name="NUPDOWN">      0.00000000</i>
  <i name="NELECT">    344.00000000</i>
  <i type="string" name="LREAL"> AUTO</i>
  <i type="int" name="ISMEAR">     0</i>
  <i name="SIGMA">      0.01000000</i>
  <i type="logical" name="LWAVE"> F  </i>
  <i type="logical" name="LCHARG"> F  </i>
  <i type="logical" name="LVHAR"> T  </i>
  <i type="int" name="LORBIT">    10</i>
  <i type="logical" name="LASPH"> T  </i>
  <v type="int" name="KPOINT_BSE">    -1     0     0     0</v>
  <i type="int" name="NELM">   200</i>
  <i type="string" name="METAGGA"> SCAN       ! PBE exchange-correlation</i>
  <i type="logical" name="LASPH"> T  </i>
 </incar>
 <structure name="primitive_cell" >
  <crystal>
   <varray name="basis" >
    <v>       8.45648900       0.00000000       8.04030100 </v>
    <v>       0.00000000      11.72984700       0.00000000 </v>
    <v>      -8.45648900       0.00000000       8.04030100 </v>
   </varray>
   <i name="volume">   1595.08833419 </i>
   <varray name="rec_basis" >
    <v>       0.05912619      -0.00000000       0.06218673 </v>
    <v>       0.00000000       0.08525260      -0.00000000 </v>
    <v>      -0.05912619       0.00000000       0.06218673 </v>
   </varray>
  </crystal>
  <varray name="positions" >
   <v>       0.25343400       0.23787300       0.19466300 </v>
   <v>       0.03719800       0.02464900       0.25463500 </v>
   <v>       0.05110800       0.46903500       0.25683700 </v>
   <v>      -0.48085200       0.25476800       0.03320800 </v>
   <v>       0.45711500       0.24195800       0.45491700 </v>
   <v>       0.43719900      -0.02628500       0.23787300 </v>
   <v>       0.24308900       0.03024500      -0.06054000 </v>
   <v>       0.24774600       0.47082600      -0.04590400 </v>
   <v>      -0.03335700       0.25010700      -0.02306400 </v>
   <v>      -0.00174800       0.00080300      -0.00216200 </v>
   <v>       0.49438800       0.00119200      -0.00589700 </v>
   <v>      -0.00009400       0.49797300       0.00193900 </v>
   <v>      -0.49913700      -0.49406800       0.00335900 </v>
   <v>       0.03738100       0.24748800      -0.45118800 </v>
   <v>       0.49956400       0.00236100       0.48750700 </v>
   <v>       0.25560400      -0.04020200      -0.45256700 </v>
   <v>      -0.49412800       0.48822900      -0.49341400 </v>
   <v>       0.25951100      -0.46736100      -0.44613500 </v>
   <v>       0.29911500       0.25128600      -0.26723900 </v>
   <v>      -0.21504600       0.24523100       0.22735900 </v>
   <v>       0.00493000       0.00037700      -0.49464200 </v>
   <v>       0.00598100       0.49373000      -0.49615400 </v>
   <v>       0.21624100      -0.24593900       0.28696900 </v>
   <v>      -0.44871300      -0.33819300       0.40846000 </v>
   <v>       0.01846300      -0.25052700       0.02975600 </v>
   <v>      -0.25255200       0.02899500       0.44920300 </v>
   <v>      -0.25223800      -0.02314800       0.04054300 </v>
   <v>      -0.44612500       0.47616200      -0.23412400 </v>
   <v>       0.46647800      -0.24789400      -0.04640500 </v>
   <v>      -0.45328900       0.03148200      -0.25941800 </v>
   <v>      -0.24893100      -0.47068400       0.05634500 </v>
   <v>      -0.24809800       0.45382800       0.45895200 </v>
   <v>      -0.05628400      -0.03134400      -0.25006700 </v>
   <v>      -0.15451300      -0.46985500      -0.14700900 </v>
   <v>      -0.02010900      -0.25320100       0.48818300 </v>
   <v>       0.19762400      -0.24988100      -0.22803900 </v>
   <v>      -0.22572900       0.24427400      -0.28263800 </v>
   <v>      -0.23585900      -0.23816400       0.25924700 </v>
   <v>      -0.26447300      -0.24815400      -0.19443500 </v>
  </varray>
 </structure>
 <varray name="primitive_index" >
  <v type="int" >        1 </v>
  <v type="int" >       28 </v>
  <v type="int" >       38 </v>
  <v type="int" >       22 </v>
  <v type="int" >       20 </v>
  <v type="int" >       33 </v>
  <v type="int" >       31 </v>
  <v type="int" >       24 </v>
  <v type="int" >       19 </v>
  <v type="int" >        9 </v>
  <v type="int" >       11 </v>
  <v type="int" >       15 </v>
  <v type="int" >       13 </v>
  <v type="int" >       23 </v>
  <v type="int" >       10 </v>
  <v type="int" >       30 </v>
  <v type="int" >       16 </v>
  <v type="int" >       36 </v>
  <v type="int" >        5 </v>
  <v type="int" >        6 </v>
  <v type="int" >       12 </v>
  <v type="int" >       14 </v>
  <v type="int" >        8 </v>
  <v type="int" >       39 </v>
  <v type="int" >       21 </v>
  <v type="int" >       32 </v>
  <v type="int" >       29 </v>
  <v type="int" >       37 </v>
  <v type="int" >       17 </v>
  <v type="int" >       27 </v>
  <v type="int" >       35 </v>
  <v type="int" >       25 </v>
  <v type="int" >       34 </v>
  <v type="int" >       26 </v>
  <v type="int" >       18 </v>
  <v type="int" >        4 </v>
  <v type="int" >        2 </v>
  <v type="int" >        3 </v>
  <v type="int" >        7 </v>
 </varray>
 <kpoints>
  <generation param="Gamma">
   <v type="int" name="divisions">       2        2        2 </v>
   <v name="usershift">      0.00000000       0.00000000       0.00000000 </v>
   <v name="genvec1">      0.50000000       0.00000000       0.00000000 </v>
   <v name="genvec2">      0.00000000       0.50000000       0.00000000 </v>
   <v name="genvec3">      0.00000000       0.00000000       0.50000000 </v>
   <v name="shift">      0.00000000       0.00000000       0.00000000 </v>
  </generation>
  <varray name="kpointlist" >
   <v>       0.00000000       0.00000000       0.00000000 </v>
   <v>       0.50000000       0.00000000       0.00000000 </v>
   <v>       0.00000000       0.50000000       0.00000000 </v>
   <v>       0.50000000       0.50000000       0.00000000 </v>
   <v>       0.00000000       0.00000000       0.50000000 </v>
   <v>       0.50000000       0.00000000       0.50000000 </v>
   <v>       0.00000000       0.50000000       0.50000000 </v>
   <v>       0.50000000       0.50000000       0.50000000 </v>
  </varray>
  <varray name="weights" >
   <v>       0.12500000 </v>
   <v>       0.12500000 </v>
   <v>       0.12500000 </v>
   <v>       0.12500000 </v>
   <v>       0.12500000 </v>
   <v>       0.12500000 </v>
   <v>       0.12500000 </v>
   <v>       0.12500000 </v>
  </varray>
 </kpoints>
 <parameters>
  <separator name="general" >
   <i type="string" name="SYSTEM">CsPbBr3 cubic bulk</i>
   <i type="logical" name="LCOMPAT"> F  </i>
  </separator>
  <separator name="electronic" >
   <i type="string" name="PREC">accura</i>
   <i name="ENMAX">    300.00000000</i>
   <i name="ENAUG">    503.85200000</i>
   <i name="EDIFF">      0.00000100</i>
   <i type="int" name="IALGO">    38</i>
   <i type="int" name="IWAVPR">    10</i>
   <i type="int" name="NBANDS">   208</i>
   <i name="NELECT">    344.00000000</i>
   <i type="int" name="TURBO">     0</i>
   <i type="int" name="IRESTART">     0</i>
   <i type="int" name="NREBOOT">     0</i>
   <i type="int" name="NMIN">     0</i>
   <i name="EREF">      0.00000000</i>
   <separator name="electronic smearing" >
    <i type="int" name="ISMEAR">     0</i>
    <i name="SIGMA">      0.01000000</i>
    <i name="KSPACING">      0.50000000</i>
    <i type="logical" name="KGAMMA"> T  </i>
   </separator>
   <separator name="electronic projectors" >
    <i type="logical" name="LREAL"> T  </i>
    <v name="ROPT">     -0.00025000     -0.00025000     -0.00025000</v>
    <i type="int" name="LMAXPAW">  -100</i>
    <i type="int" name="LMAXMIX">     2</i>
    <i type="logical" name="NLSPLINE"> F  </i>
   </separator>
   <separator name="electronic startup" >
    <i type="int" name="ISTART">     0</i>
    <i type="int" name="ICHARG">     2</i>
    <i type="int" name="INIWAV">     1</i>
   </separator>
   <separator name="electronic spin" >
    <i type="int" name="ISPIN">     1</i>
    <i type="logical" name="LNONCOLLINEAR"> F  </i>
    <v name="MAGMOM">      0.00000000      0.00000000      0.00000000      0.00000000      0.00000000      0.00000000      0.00000000      0.00000000      0.00000000      0.00000000      0.00000000      0.00000000      0.00000000      0.00000000      0.00000000      0.00000000      0.00000000      0.00000000      0.00000000      0.00000000
      0.00000000      0.00000000      0.00000000      0.00000000      0.00000000      0.00000000      0.00000000      0.00000000      0.00000000      0.00000000      0.00000000      0.00000000      0.00000000      0.00000000      0.00000000      0.00000000      0.00000000      0.00000000      0.00000000</v>
    <i name="NUPDOWN">      0.00000000</i>
    <i type="logical" name="LSORBIT"> F  </i>
    <v name="SAXIS">      0.00000000      0.00000000      1.00000000</v>
    <i type="logical" name="LSPIRAL"> F  </i>
    <v name="QSPIRAL">      0.00000000      0.00000000      0.00000000</v>
    <i type="logical" name="LZEROZ"> F  </i>
   </separator>
   <separator name="electronic exchange-correlation" >
    <i type="logical" name="LASPH"> T  </i>
    <i type="logical" name="LMETAGGA"> F  </i>
   </separator>
   <separator name="electronic convergence" >
    <i type="int" name="NELM">   200</i>
    <i type="int" name="NELMDL">    -5</i>
    <i type="int" name="NELMIN">     2</i>
    <i name="ENINI">    300.00000000</i>
    <separator name="electronic convergence detail" >
     <i type="logical" name="LDIAG"> T  </i>
     <i type="logical" name="LSUBROT"> F  </i>
     <i name="WEIMIN">      0.00000000</i>
     <i name="EBREAK">      0.00000000</i>
     <i name="DEPER">      0.30000000</i>
     <i type="int" name="NRMM">     4</i>
     <i name="TIME">      0.40000000</i>
    </separator>
   </separator>
   <separator name="electronic mixer" >
    <i name="AMIX">      0.40000000</i>
    <i name="BMIX">      1.00000000</i>
    <i name="AMIN">      0.10000000</i>
    <i name="AMIX_MAG">      1.60000000</i>
    <i name="BMIX_MAG">      1.00000000</i>
    <separator name="electronic mixer details" >
     <i type="int" name="IMIX">     4</i>
     <i type="logical" name="MIXFIRST"> F  </i>
     <i type="int" name="MAXMIX">   -45</i>
     <i name="WC">    100.00000000</i>
     <i type="int" name="INIMIX">     1</i>
     <i type="int" name="MIXPRE">     1</i>
     <i type="int" name="MREMOVE">     5</i>
    </separator>
   </separator>
   <separator name="electronic dipolcorrection" >
    <i type="logical" name="LDIPOL"> F  </i>
    <i type="logical" name="LMONO"> F  </i>
    <i type="int" name="IDIPOL">     0</i>
    <i name="EPSILON">      1.00000000</i>
    <v name="DIPOL">   -100.00000000   -100.00000000   -100.00000000</v>
    <i name="EFIELD">      0.00000000</i>
   </separator>
  </separator>
  <separator name="grids" >
   <i type="int" name="NGX">    70</i>
   <i type="int" name="NGY">    70</i>
   <i type="int" name="NGZ">    70</i>
   <i type="int" name="NGXF">   140</i>
   <i type="int" name="NGYF">   140</i>
   <i type="int" name="NGZF">   140</i>
   <i type="logical" name="ADDGRID"> T  </i>
  </separator>
  <separator name="ionic" >
   <i type="int" name="NSW">     0</i>
   <i type="int" name="IBRION">    -1</i>
   <i type="int" name="MDALGO">     0</i>
   <i type="int" name="ISIF">     2</i>
   <i name="PSTRESS">      0.00000000</i>
   <i name="EDIFFG">     -0.01000000</i>
   <i type="int" name="NFREE">     1</i>
   <i name="POTIM">      0.50000000</i>
   <i name="SMASS">     -3.00000000</i>
   <i name="SCALEE">      1.00000000</i>
  </separator>
  <separator name="ionic md" >
   <i name="TEBEG">      0.00010000</i>
   <i name="TEEND">      0.00010000</i>
   <i type="int" name="NBLOCK">     1</i>
   <i type="int" name="KBLOCK">     1</i>
   <i type="int" name="NPACO">   256</i>
   <i name="APACO">     16.00000000</i>
  </separator>
  <separator name="symmetry" >
   <i type="int" name="ISYM">     0</i>
   <i name="SYMPREC">      0.00001000</i>
  </separator>
  <separator name="dos" >
   <i type="int" name="LORBIT">    10</i>
   <v name="RWIGS">     -1.00000000     -1.00000000     -1.00000000</v>
   <i type="int" name="NEDOS">   301</i>
   <i name="EMIN">     10.00000000</i>
   <i name="EMAX">    -10.00000000</i>
   <i name="EFERMI">      0.00000000</i>
  </separator>
  <separator name="writing" >
   <i type="int" name="NWRITE">     2</i>
   <i type="logical" name="LWAVE"> F  </i>
   <i type="logical" name="LDOWNSAMPLE"> F  </i>
   <i type="logical" name="LCHARG"> F  </i>
   <i type="logical" name="LPARD"> F  </i>
   <i type="logical" name="LVTOT"> F  </i>
   <i type="logical" name="LVHAR"> T  </i>
   <i type="logical" name="LELF"> F  </i>
   <i type="logical" name="LOPTICS"> F  </i>
   <v name="STM">      0.00000000      0.00000000      0.00000000      0.00000000      0.00000000      0.00000000      0.00000000</v>
  </separator>
  <separator name="performance" >
   <i type="int" name="NPAR">     8</i>
   <i type="int" name="NSIM">     4</i>
   <i type="int" name="NBLK">    -1</i>
   <i type="logical" name="LPLANE"> T  </i>
   <i type="logical" name="LSCALAPACK"> T  </i>
   <i type="logical" name="LSCAAWARE"> F  </i>
   <i type="logical" name="LSCALU"> F  </i>
   <i type="logical" name="LASYNC"> F  </i>
   <i type="logical" name="LORBITALREAL"> F  </i>
  </separator>
  <separator name="miscellaneous" >
   <i type="int" name="IDIOT">     3</i>
   <i type="int" name="ISPECIAL">     0</i>
   <i type="logical" name="LMUSIC"> F  </i>
   <v name="POMASS">    132.90000000    207.20000000     79.90400000</v>
   <v name="DARWINR">      0.00000000      0.00000000      0.00000000</v>
   <v name="DARWINV">      1.00000000      1.00000000      1.00000000</v>
   <i type="logical" name="LCORR"> T  </i>
  </separator>
  <i type="logical" name="GGA_COMPAT"> T  </i>
  <i type="logical" name="LBERRY"> F  </i>
  <i type="int" name="ICORELEVEL">     0</i>
  <i type="logical" name="LDAU"> F  </i>
  <i type="int" name="I_CONSTRAINED_M">     0</i>
  <separator name="electronic exchange-correlation" >
   <i type="string" name="GGA">--</i>
   <i type="int" name="VOSKOWN">     0</i>
   <i type="logical" name="LHFCALC"> F  </i>
   <i type="string" name="PRECFOCK"></i>
   <i type="logical" name="LSYMGRAD"> F  </i>
   <i type="logical" name="LHFONE"> F  </i>
   <i type="logical" name="LRHFCALC"> F  </i>
   <i type="logical" name="LTHOMAS"> F  </i>
   <i type="logical" name="LMODELHF"> F  </i>
   <i name="ENCUT4O">     -1.00000000</i>
   <i type="int" name="EXXOEP">     0</i>
   <i type="int" name="FOURORBIT">     0</i>
   <i name="AEXX">      0.00000000</i>
   <i name="HFALPHA">      0.00000000</i>
   <i name="MCALPHA">      0.00000000</i>
   <i name="ALDAX">      1.00000000</i>
   <i name="AGGAX">      1.00000000</i>
   <i name="ALDAC">      1.00000000</i>
   <i name="AGGAC">      1.00000000</i>
   <i type="int" name="NKREDX">     1</i>
   <i type="int" name="NKREDY">     1</i>
   <i type="int" name="NKREDZ">     1</i>
   <i type="logical" name="SHIFTRED"> F  </i>
   <i type="logical" name="ODDONLY"> F  </i>
   <i type="logical" name="EVENONLY"> F  </i>
   <i type="int" name="LMAXFOCK">     0</i>
   <i type="int" name="NMAXFOCKAE">     0</i>
   <i type="logical" name="LFOCKAEDFT"> F  </i>
   <i name="HFSCREEN">      0.00000000</i>
   <i name="HFSCREENC">      0.00000000</i>
   <i type="int" name="NBANDSGWLOW">     0</i>
  </separator>
  <separator name="vdW DFT" >
   <i type="logical" name="LUSE_VDW"> F  </i>
   <i name="Zab_VDW">     -0.84910000</i>
   <i name="PARAM1">      0.12340000</i>
   <i name="PARAM2">      1.00000000</i>
   <i name="PARAM3">      0.00000000</i>
  </separator>
  <separator name="model GW" >
   <i type="int" name="MODEL_GW">     0</i>
   <i name="MODEL_EPS0">     24.53982053</i>
   <i name="MODEL_ALPHA">      1.00000000</i>
  </separator>
  <separator name="linear response parameters" >
   <i type="logical" name="LEPSILON"> F  </i>
   <i type="logical" name="LRPA"> F  </i>
   <i type="logical" name="LNABLA"> F  </i>
   <i type="logical" name="LVEL"> F  </i>
   <i type="int" name="KINTER">     0</i>
   <i name="CSHIFT">      0.10000000</i>
   <i name="OMEGAMAX">     -1.00000000</i>
   <i name="DEG_THRESHOLD">      0.00200000</i>
   <i name="RTIME">     -0.10000000</i>
   <i name="WPLASMAI">      0.00000000</i>
   <v name="DFIELD">      0.00000000      0.00000000      0.00000000</v>
   <v name="WPLASMA">      0.00000000      0.00000000      0.00000000      0.00000000      0.00000000      0.00000000      0.00000000      0.00000000      0.00000000</v>
  </separator>
  <separator name="orbital magnetization" >
   <i type="logical" name="NUCIND"> F  </i>
   <v name="MAGPOS">      0.00000000      0.00000000      0.00000000</v>
   <i type="logical" name="LNICSALL"> T  </i>
   <i type="logical" name="ORBITALMAG"> F  </i>
   <i type="logical" name="LMAGBLOCH"> F  </i>
   <i type="logical" name="LCHIMAG"> F  </i>
   <i type="logical" name="LGAUGE"> T  </i>
   <i type="int" name="MAGATOM">     0</i>
   <v name="MAGDIPOL">      0.00000000      0.00000000      0.00000000</v>
   <v name="AVECCONST">      0.00000000      0.00000000      0.00000000</v>
  </separator>
  <separator name="response functions" >
   <i type="logical" name="LADDER"> F  </i>
   <i type="logical" name="LRPAFORCE"> F  </i>
   <i type="logical" name="LFXC"> F  </i>
   <i type="logical" name="LHARTREE"> T  </i>
   <i type="int" name="IBSE">     0</i>
   <v type="int" name="KPOINT">    -1     0     0     0</v>
   <i type="logical" name="LTCTE"> F  </i>
   <i type="logical" name="LTETE"> F  </i>
   <i type="logical" name="LTRIPLET"> F  </i>
   <i type="logical" name="LFXCEPS"> F  </i>
   <i type="logical" name="LFXHEG"> F  </i>
   <i type="int" name="NATURALO">     2</i>
   <i type="logical" name="L2ORDER"> F  </i>
   <i type="logical" name="LMP2LT"> F  </i>
   <i type="logical" name="LUSEW"> F  </i>
   <i name="ENCUTGW">     -2.00000000</i>
   <i name="ENCUTGWSOFT">     -2.00000000</i>
   <i name="ENCUTLF">     -1.00000000</i>
   <i type="int" name="LMAXMP2">    -1</i>
   <i name="SCISSOR">      0.00000000</i>
   <i type="int" name="NOMEGA">     0</i>
   <i type="int" name="NOMEGAR">     0</i>
   <i type="int" name="NBANDSGW">    -1</i>
   <i type="int" name="NBANDSO">    -1</i>
   <i type="int" name="NBANDSV">    -1</i>
   <i type="int" name="NELM">   200</i>
   <i type="int" name="NELMHF">     1</i>
   <i type="int" name="DIM">     3</i>
   <i type="int" name="ANTIRES">     0</i>
   <i name="OMEGAMAX">    -30.00000000</i>
   <i name="OMEGAMIN">    -30.00000000</i>
   <i name="OMEGATL">   -200.00000000</i>
   <i type="int" name="OMEGAGRID">   140</i>
   <i name="CSHIFT">     -0.10000000</i>
   <i type="logical" name="SELFENERGY"> F  </i>
   <i type="logical" name="LSPECTRAL"> F  </i>
   <i type="logical" name="LSPECTRALGW"> F  </i>
   <i type="logical" name="LSINGLES"> F  </i>
   <i type="logical" name="LFERMIGW"> F  </i>
   <i type="logical" name="ODDONLYGW"> F  </i>
   <i type="logical" name="EVENONLYGW"> F  </i>
   <i type="int" name="NKREDLFX">     1</i>
   <i type="int" name="NKREDLFY">     1</i>
   <i type="int" name="NKREDLFZ">     1</i>
   <i type="int" name="MAXMEM">  2800</i>
   <i type="int" name="TELESCOPE">     0</i>
   <i type="int" name="TAUPAR">     1</i>
   <i type="int" name="OMEGAPAR">    -1</i>
   <i name="LAMBDA">      1.00000000</i>
  </separator>
  <separator name="External order field" >
   <i name="OFIELD_KAPPA">      0.00000000</i>
   <v name="OFIELD_K">      0.00000000      0.00000000      0.00000000</v>
   <i name="OFIELD_Q6_NEAR">      0.00000000</i>
   <i name="OFIELD_Q6_FAR">      0.00000000</i>
   <i name="OFIELD_A">      0.00000000</i>
  </separator>
 </parameters>
 <atominfo>
  <atoms>      39 </atoms>
  <types>       3 </types>
  <array name="atoms" >
   <dimension dim="1">ion</dimension>
   <field type="string">element</field>
   <field type="int">atomtype</field>
   <set>
    <rc><c>Cs</c><c>   1</c></rc>
    <rc><c>Cs</c><c>   1</c></rc>
    <rc><c>Cs</c><c>   1</c></rc>
    <rc><c>Cs</c><c>   1</c></rc>
    <rc><c>Cs</c><c>   1</c></rc>
    <rc><c>Cs</c><c>   1</c></rc>
    <rc><c>Cs</c><c>   1</c></rc>
    <rc><c>Cs</c><c>   1</c></rc>
    <rc><c>Pb</c><c>   2</c></rc>
    <rc><c>Pb</c><c>   2</c></rc>
    <rc><c>Pb</c><c>   2</c></rc>
    <rc><c>Pb</c><c>   2</c></rc>
    <rc><c>Pb</c><c>   2</c></rc>
    <rc><c>Pb</c><c>   2</c></rc>
    <rc><c>Pb</c><c>   2</c></rc>
    <rc><c>Pb</c><c>   2</c></rc>
    <rc><c>Br</c><c>   3</c></rc>
    <rc><c>Br</c><c>   3</c></rc>
    <rc><c>Br</c><c>   3</c></rc>
    <rc><c>Br</c><c>   3</c></rc>
    <rc><c>Br</c><c>   3</c></rc>
    <rc><c>Br</c><c>   3</c></rc>
    <rc><c>Br</c><c>   3</c></rc>
    <rc><c>Br</c><c>   3</c></rc>
    <rc><c>Br</c><c>   3</c></rc>
    <rc><c>Br</c><c>   3</c></rc>
    <rc><c>Br</c><c>   3</c></rc>
    <rc><c>Br</c><c>   3</c></rc>
    <rc><c>Br</c><c>   3</c></rc>
    <rc><c>Br</c><c>   3</c></rc>
    <rc><c>Br</c><c>   3</c></rc>
    <rc><c>Br</c><c>   3</c></rc>
    <rc><c>Br</c><c>   3</c></rc>
    <rc><c>Br</c><c>   3</c></rc>
    <rc><c>Br</c><c>   3</c></rc>
    <rc><c>Br</c><c>   3</c></rc>
    <rc><c>Br</c><c>   3</c></rc>
    <rc><c>Br</c><c>   3</c></rc>
    <rc><c>Br</c><c>   3</c></rc>
   </set>
  </array>
  <array name="atomtypes" >
   <dimension dim="1">type</dimension>
   <field type="int">atomspertype</field>
   <field type="string">element</field>
   <field>mass</field>
   <field>valence</field>
   <field type="string">pseudopotential</field>
   <set>
    <rc><c>   8</c><c>Cs</c><c>    132.90000000</c><c>      9.00000000</c><c>  PAW_PBE Cs_sv 08Apr2002               </c></rc>
    <rc><c>   8</c><c>Pb</c><c>    207.20000000</c><c>     14.00000000</c><c>  PAW_PBE Pb_d 06Sep2000                </c></rc>
    <rc><c>  23</c><c>Br</c><c>     79.90400000</c><c>      7.00000000</c><c>  PAW_PBE Br 06Sep2000                  </c></rc>
   </set>
  </array>
 </atominfo>
 <structure name="initialpos" >
  <crystal>
   <varray name="basis" >
    <v>       8.45648900       0.00000000       8.04030100 </v>
    <v>       0.00000000      11.72984700       0.00000000 </v>
    <v>      -8.45648900       0.00000000       8.04030100 </v>
   </varray>
   <i name="volume">   1595.08833419 </i>
   <varray name="rec_basis" >
    <v>       0.05912619      -0.00000000       0.06218673 </v>
    <v>       0.00000000       0.08525260      -0.00000000 </v>
    <v>      -0.05912619       0.00000000       0.06218673 </v>
   </varray>
  </crystal>
  <varray name="positions" >
   <v>       0.25343400       0.23787300       0.19466300 </v>
   <v>       0.77427100       0.24427400       0.71736200 </v>
   <v>       0.76414100       0.76183600       0.25924700 </v>
   <v>       0.19762400       0.75011900       0.77196100 </v>
   <v>       0.29911500       0.25128600       0.73276100 </v>
   <v>       0.78495400       0.24523100       0.22735900 </v>
   <v>       0.73552700       0.75184600       0.80556500 </v>
   <v>       0.21624100       0.75406100       0.28696900 </v>
   <v>       0.99825200       0.00080300       0.99783800 </v>
   <v>       0.49956400       0.00236100       0.48750700 </v>
   <v>       0.49438800       0.00119200       0.99410300 </v>
   <v>       0.00493000       0.00037700       0.50535800 </v>
   <v>       0.50086300       0.50593200       0.00335900 </v>
   <v>       0.00598100       0.49373000       0.50384600 </v>
   <v>       0.99990600       0.49797300       0.00193900 </v>
   <v>       0.50587200       0.48822900       0.50658600 </v>
   <v>       0.46647800       0.75210600       0.95359500 </v>
   <v>       0.97989100       0.74679900       0.48818300 </v>
   <v>       0.96664300       0.25010700       0.97693600 </v>
   <v>       0.45711500       0.24195800       0.45491700 </v>
   <v>       0.01846300       0.74947300       0.02975600 </v>
   <v>       0.51914800       0.25476800       0.03320800 </v>
   <v>       0.03738100       0.24748800       0.54881200 </v>
   <v>       0.24774600       0.47082600       0.95409600 </v>
   <v>       0.75190200       0.45382800       0.45895200 </v>
   <v>       0.84548700       0.53014500       0.85299100 </v>
   <v>       0.54671100       0.03148200       0.74058200 </v>
   <v>       0.03719800       0.02464900       0.25463500 </v>
   <v>       0.74776200       0.97685200       0.04054300 </v>
   <v>       0.25560400       0.95979800       0.54743300 </v>
   <v>       0.24308900       0.03024500       0.93946000 </v>
   <v>       0.74744800       0.02899500       0.44920300 </v>
   <v>       0.43719900       0.97371500       0.23787300 </v>
   <v>       0.94371600       0.96865600       0.74993300 </v>
   <v>       0.75106900       0.52931600       0.05634500 </v>
   <v>       0.25951100       0.53263900       0.55386500 </v>
   <v>       0.55387500       0.47616200       0.76587600 </v>
   <v>       0.05110800       0.46903500       0.25683700 </v>
   <v>       0.55128700       0.66180700       0.40846000 </v>
  </varray>
 </structure>
 <calculation>
  <scstep>
   <time name="dav">   16.70   16.71</time>
   <time name="total">   18.17   18.18</time>
   <energy>
    <i name="alphaZ">    872.70583573 </i>
    <i name="ewald"> -17758.35530966 </i>
    <i name="hartreedc">  -7585.96110458 </i>
    <i name="XCdc">    909.48527632 </i>
    <i name="pawpsdc">  21345.28103884 </i>
    <i name="pawaedc"> -22405.85761495 </i>
    <i name="eentropy">     -0.00111501 </i>
    <i name="bandstr">   -241.77591722 </i>
    <i name="atom">  26212.11861568 </i>
    <i name="e_fr_energy">   1347.63970516 </i>
    <i name="e_wo_entrp">   1347.64082017 </i>
    <i name="e_0_energy">   1347.64026266 </i>
   </energy>
  </scstep>
  <scstep>
   <time name="dav">   18.50   18.55</time>
   <time name="total">   18.50   18.55</time>
   <energy>
    <i name="e_fr_energy">  -1104.79696633 </i>
    <i name="e_wo_entrp">  -1104.79696633 </i>
    <i name="e_0_energy">  -1104.79696633 </i>
   </energy>
  </scstep>
  <scstep>
   <time name="dav">   19.47   19.52</time>
   <time name="total">   19.47   19.52</time>
   <energy>
    <i name="e_fr_energy">  -1471.01447797 </i>
    <i name="e_wo_entrp">  -1471.01447797 </i>
    <i name="e_0_energy">  -1471.01447797 </i>
   </energy>
  </scstep>
  <scstep>
   <time name="dav">   17.97   18.03</time>
   <time name="total">   17.97   18.03</time>
   <energy>
    <i name="e_fr_energy">  -1483.52390588 </i>
    <i name="e_wo_entrp">  -1483.52390588 </i>
    <i name="e_0_energy">  -1483.52390588 </i>
   </energy>
  </scstep>
  <scstep>
   <time name="dav">   19.41   19.44</time>
   <time name="total">   22.15   22.18</time>
   <energy>
    <i name="e_fr_energy">  -1484.12082175 </i>
    <i name="e_wo_entrp">  -1484.12082175 </i>
    <i name="e_0_energy">  -1484.12082175 </i>
   </energy>
  </scstep>
  <scstep>
   <time name="dav">   19.20   19.20</time>
   <time name="total">   23.46   23.47</time>
   <energy>
    <i name="e_fr_energy">  -1406.03727863 </i>
    <i name="e_wo_entrp">  -1406.03727863 </i>
    <i name="e_0_energy">  -1406.03727863 </i>
   </energy>
  </scstep>
  <scstep>
   <time name="dav">   18.99   18.99</time>
   <time name="total">   23.22   23.24</time>
   <energy>
    <i name="e_fr_energy">  -1405.54578269 </i>
    <i name="e_wo_entrp">  -1405.54578269 </i>
    <i name="e_0_energy">  -1405.54578269 </i>
   </energy>
  </scstep>
  <scstep>
   <time name="dav">   18.38   18.38</time>
   <time name="total">   22.61   22.65</time>
   <energy>
    <i name="e_fr_energy">  -1405.70398602 </i>
    <i name="e_wo_entrp">  -1405.70398602 </i>
    <i name="e_0_energy">  -1405.70398602 </i>
   </energy>
  </scstep>
  <scstep>
   <time name="dav">   18.19   18.19</time>
   <time name="total">   22.42   22.43</time>
   <energy>
    <i name="e_fr_energy">  -1405.75874262 </i>
    <i name="e_wo_entrp">  -1405.75874262 </i>
    <i name="e_0_energy">  -1405.75874262 </i>
   </energy>
  </scstep>
  <scstep>
   <time name="dav">   20.35   20.35</time>
   <time name="total">   24.60   24.61</time>
   <energy>
    <i name="e_fr_energy">  -1405.76204384 </i>
    <i name="e_wo_entrp">  -1405.76204384 </i>
    <i name="e_0_energy">  -1405.76204384 </i>
   </energy>
  </scstep>
  <scstep>
   <time name="dav">   18.27   18.27</time>
   <time name="total">   22.49   22.52</time>
   <energy>
    <i name="e_fr_energy">  -1405.76443203 </i>
    <i name="e_wo_entrp">  -1405.76443203 </i>
    <i name="e_0_energy">  -1405.76443203 </i>
   </energy>
  </scstep>
  <scstep>
   <time name="dav">   17.38   17.38</time>
   <time name="total">   21.62   21.64</time>
   <energy>
    <i name="e_fr_energy">  -1405.76720886 </i>
    <i name="e_wo_entrp">  -1405.76720886 </i>
    <i name="e_0_energy">  -1405.76720886 </i>
   </energy>
  </scstep>
  <scstep>
   <time name="dav">   19.38   19.38</time>
   <time name="total">   23.58   23.63</time>
   <energy>
    <i name="e_fr_energy">  -1405.76699873 </i>
    <i name="e_wo_entrp">  -1405.76699873 </i>
    <i name="e_0_energy">  -1405.76699873 </i>
   </energy>
  </scstep>
  <scstep>
   <time name="dav">   18.55   18.55</time>
   <time name="total">   22.78   22.80</time>
   <energy>
    <i name="e_fr_energy">  -1405.76699754 </i>
    <i name="e_wo_entrp">  -1405.76699754 </i>
    <i name="e_0_energy">  -1405.76699754 </i>
   </energy>
  </scstep>
  <scstep>
   <time name="dav">   18.68   18.68</time>
   <time name="total">   22.87   22.93</time>
   <energy>
    <i name="e_fr_energy">  -1405.76703105 </i>
    <i name="e_wo_entrp">  -1405.76703105 </i>
    <i name="e_0_energy">  -1405.76703105 </i>
   </energy>
  </scstep>
  <scstep>
   <time name="dav">   17.45   17.45</time>
   <time name="total">   21.66   21.70</time>
   <energy>
    <i name="e_fr_energy">  -1405.76705574 </i>
    <i name="e_wo_entrp">  -1405.76705574 </i>
    <i name="e_0_energy">  -1405.76705574 </i>
   </energy>
  </scstep>
  <scstep>
   <time name="dav">   18.75   18.75</time>
   <time name="total">   22.94   22.99</time>
   <energy>
    <i name="e_fr_energy">  -1405.76706610 </i>
    <i name="e_wo_entrp">  -1405.76706610 </i>
    <i name="e_0_energy">  -1405.76706610 </i>
   </energy>
  </scstep>
  <scstep>
   <time name="dav">   14.40   14.40</time>
   <time name="total">   18.65   18.66</time>
   <energy>
    <i name="e_fr_energy">  -1405.76706280 </i>
    <i name="e_wo_entrp">  -1405.76706280 </i>
    <i name="e_0_energy">  -1405.76706280 </i>
   </energy>
  </scstep>
  <scstep>
   <time name="dav">   13.24   13.25</time>
   <time name="total">   17.48   17.49</time>
   <energy>
    <i name="e_fr_energy">  -1405.76706028 </i>
    <i name="e_wo_entrp">  -1405.76706028 </i>
    <i name="e_0_energy">  -1405.76706028 </i>
   </energy>
  </scstep>
  <scstep>
   <time name="dav">   12.93   12.93</time>
   <time name="total">   14.42   14.45</time>
   <energy>
    <i name="alphaZ">    872.70583573 </i>
    <i name="ewald"> -17758.35530966 </i>
    <i name="hartreedc">  -7631.43003316 </i>
    <i name="XCdc">    945.21415034 </i>
    <i name="pawpsdc">  23124.91290062 </i>
    <i name="pawaedc"> -24185.66789902 </i>
    <i name="eentropy">     -0.00000000 </i>
    <i name="bandstr">  -2985.26531987 </i>
    <i name="atom">  26212.11861568 </i>
    <i name="e_fr_energy">  -1405.76705933 </i>
    <i name="e_wo_entrp">  -1405.76705933 </i>
    <i name="e_0_energy">  -1405.76705933 </i>
   </energy>
  </scstep>
  <structure>
   <crystal>
    <varray name="basis" >
     <v>       8.45648900       0.00000000       8.04030100 </v>
     <v>       0.00000000      11.72984700       0.00000000 </v>
     <v>      -8.45648900       0.00000000       8.04030100 </v>
    </varray>
    <i name="volume">   1595.08833419 </i>
    <varray name="rec_basis" >
     <v>       0.05912619      -0.00000000       0.06218673 </v>
     <v>       0.00000000       0.08525260      -0.00000000 </v>
     <v>      -0.05912619       0.00000000       0.06218673 </v>
    </varray>
   </crystal>
   <varray name="positions" >
    <v>       0.25343400       0.23787300       0.19466300 </v>
    <v>       0.77427100       0.24427400       0.71736200 </v>
    <v>       0.76414100       0.76183600       0.25924700 </v>
    <v>       0.19762400       0.75011900       0.77196100 </v>
    <v>       0.29911500       0.25128600       0.73276100 </v>
    <v>       0.78495400       0.24523100       0.22735900 </v>
    <v>       0.73552700       0.75184600       0.80556500 </v>
    <v>       0.21624100       0.75406100       0.28696900 </v>
    <v>       0.99825200       0.00080300       0.99783800 </v>
    <v>       0.49956400       0.00236100       0.48750700 </v>
    <v>       0.49438800       0.00119200       0.99410300 </v>
    <v>       0.00493000       0.00037700       0.50535800 </v>
    <v>       0.50086300       0.50593200       0.00335900 </v>
    <v>       0.00598100       0.49373000       0.50384600 </v>
    <v>       0.99990600       0.49797300       0.00193900 </v>
    <v>       0.50587200       0.48822900       0.50658600 </v>
    <v>       0.46647800       0.75210600       0.95359500 </v>
    <v>       0.97989100       0.74679900       0.48818300 </v>
    <v>       0.96664300       0.25010700       0.97693600 </v>
    <v>       0.45711500       0.24195800       0.45491700 </v>
    <v>       0.01846300       0.74947300       0.02975600 </v>
    <v>       0.51914800       0.25476800       0.03320800 </v>
    <v>       0.03738100       0.24748800       0.54881200 </v>
    <v>       0.24774600       0.47082600       0.95409600 </v>
    <v>       0.75190200       0.45382800       0.45895200 </v>
    <v>       0.84548700       0.53014500       0.85299100 </v>
    <v>       0.54671100       0.03148200       0.74058200 </v>
    <v>       0.03719800       0.02464900       0.25463500 </v>
    <v>       0.74776200       0.97685200       0.04054300 </v>
    <v>       0.25560400       0.95979800       0.54743300 </v>
    <v>       0.24308900       0.03024500       0.93946000 </v>
    <v>       0.74744800       0.02899500       0.44920300 </v>
    <v>       0.43719900       0.97371500       0.23787300 </v>
    <v>       0.94371600       0.96865600       0.74993300 </v>
    <v>       0.75106900       0.52931600       0.05634500 </v>
    <v>       0.25951100       0.53263900       0.55386500 </v>
    <v>       0.55387500       0.47616200       0.76587600 </v>
    <v>       0.05110800       0.46903500       0.25683700 </v>
    <v>       0.55128700       0.66180700       0.40846000 </v>
   </varray>
  </structure>
  <varray name="forces" >
   <v>      -0.00174173      -0.05174837      -0.03572942 </v>
   <v>      -0.04415856      -0.02267761      -0.04181103 </v>
   <v>       0.41783409       0.14719312       0.04431728 </v>
   <v>      -0.00521758       0.05098000       0.04457564 </v>
   <v>       0.05516183      -0.00894557       0.04636238 </v>
   <v>       0.01053744       0.02838917      -0.01800988 </v>
   <v>      -0.32061290       1.52926710      -0.76518645 </v>
   <v>       0.03023440       0.01337904       0.03683505 </v>
   <v>      -0.01736083       0.01686175      -0.01781609 </v>
   <v>       0.02790668       0.16542826      -0.01854477 </v>
   <v>       0.06589766       0.01954274      -0.03945257 </v>
   <v>      -0.04494537       0.03053974      -0.00497936 </v>
   <v>       0.25936440      -0.06506282       0.06884349 </v>
   <v>       0.27568616      -0.12835127      -0.27227246 </v>
   <v>      -0.04787560      -0.39794677       2.51291908 </v>
   <v>      -1.87770954      -2.90877904       1.05082588 </v>
   <v>      -0.04151473       0.00115092      -0.00997806 </v>
   <v>      -0.02715029      -0.08574112       0.04925335 </v>
   <v>       0.01428000      -0.15842272       0.01247995 </v>
   <v>       0.04528333      -0.64861528      -0.08858388 </v>
   <v>       0.00220871       0.14061724       0.07359094 </v>
   <v>      -0.01401833       0.00146374      -0.00247602 </v>
   <v>      -0.00187377       0.07369042       0.01323684 </v>
   <v>       0.30903021       0.00437174       0.07711228 </v>
   <v>       0.25574827      -0.30841031       0.39445422 </v>
   <v>       4.25022201      -1.09959096      -3.39139752 </v>
   <v>      -0.00520482       0.02188952      -0.02292505 </v>
   <v>      -0.00730883      -0.02024282       0.03703192 </v>
   <v>      -0.02013249       0.01838899      -0.01580094 </v>
   <v>      -0.03053750      -0.03291760      -0.02544026 </v>
   <v>       0.01611916      -0.00444421       0.01330811 </v>
   <v>       0.02357564      -0.00258039       0.02052739 </v>
   <v>      -0.00918937      -0.08859847       0.00732593 </v>
   <v>       0.04703864      -0.01206072      -0.00492362 </v>
   <v>      -3.71366187      -0.00591576       0.98305572 </v>
   <v>      -0.09775333       0.09658851      -0.13995519 </v>
   <v>      -0.21426746       0.03534470      -0.06027558 </v>
   <v>      -0.78718777       0.05417410       0.66553503 </v>
   <v>       1.22329404       3.60179101      -1.17603234 </v>
  </varray>
  <varray name="stress" >
   <v>       5.07345822       3.29358706      -1.52166706 </v>
   <v>       3.29385953       8.43730629      -4.24230969 </v>
   <v>      -1.52131201      -4.24242970       4.95513790 </v>
  </varray>
  <energy>
   <i name="e_fr_energy">  -1405.76705933 </i>
   <i name="e_wo_entrp">  -1405.76705933 </i>
   <i name="e_0_energy">     -0.00000000 </i>
  </energy>
  <time name="totalsc">  476.80  477.45</time>
  <eigenvalues>
   <array>
    <dimension dim="1">band</dimension>
    <dimension dim="2">kpoint</dimension>
    <dimension dim="3">spin</dimension>
    <field>eigene</field>
    <field>occ</field>
    <set>
     <set comment="spin 1">
      <set comment="kpoint 1">
       <r>  -20.9664    1.0000 </r>
       <r>  -20.8479    1.0000 </r>
       <r>  -20.8148    1.0000 </r>
       <r>  -20.7265    1.0000 </r>
       <r>  -20.7003    1.0000 </r>
       <r>  -20.6690    1.0000 </r>
       <r>  -20.6455    1.0000 </r>
       <r>  -20.6385    1.0000 </r>
       <r>  -17.0199    1.0000 </r>
       <r>  -16.6722    1.0000 </r>
       <r>  -16.6463    1.0000 </r>
       <r>  -16.5850    1.0000 </r>
       <r>  -16.5778    1.0000 </r>
       <r>  -16.5709    1.0000 </r>
       <r>  -16.5697    1.0000 </r>
       <r>  -16.5569    1.0000 </r>
       <r>  -16.5485    1.0000 </r>
       <r>  -16.5453    1.0000 </r>
       <r>  -16.5199    1.0000 </r>
       <r>  -16.4906    1.0000 </r>
       <r>  -16.4795    1.0000 </r>
       <r>  -16.4751    1.0000 </r>
       <r>  -16.4597    1.0000 </r>
       <r>  -16.4584    1.0000 </r>
       <r>  -16.4535    1.0000 </r>
       <r>  -16.4516    1.0000 </r>
       <r>  -16.4448    1.0000 </r>
       <r>  -16.4294    1.0000 </r>
       <r>  -16.4265    1.0000 </r>
       <r>  -16.4258    1.0000 </r>
       <r>  -16.3902    1.0000 </r>
       <r>  -16.3693    1.0000 </r>
       <r>  -16.3679    1.0000 </r>
       <r>  -16.3365    1.0000 </r>
       <r>  -16.3323    1.0000 </r>
       <r>  -16.3258    1.0000 </r>
       <r>  -16.3198    1.0000 </r>
       <r>  -16.3137    1.0000 </r>
       <r>  -16.2693    1.0000 </r>
       <r>  -16.2607    1.0000 </r>
       <r>  -16.2559    1.0000 </r>
       <r>  -16.2163    1.0000 </r>
       <r>  -16.2128    1.0000 </r>
       <r>  -16.2022    1.0000 </r>
       <r>  -16.1291    1.0000 </r>
       <r>  -16.0594    1.0000 </r>
       <r>  -16.0238    1.0000 </r>
       <r>  -15.9480    1.0000 </r>
       <r>  -14.7694    1.0000 </r>
       <r>  -14.6984    1.0000 </r>
       <r>  -14.3422    1.0000 </r>
       <r>  -14.2584    1.0000 </r>
       <r>  -14.2127    1.0000 </r>
       <r>  -14.1717    1.0000 </r>
       <r>  -14.1589    1.0000 </r>
       <r>  -14.0882    1.0000 </r>
       <r>  -14.0470    1.0000 </r>
       <r>  -14.0419    1.0000 </r>
       <r>  -14.0297    1.0000 </r>
       <r>  -14.0284    1.0000 </r>
       <r>  -14.0074    1.0000 </r>
       <r>  -13.9947    1.0000 </r>
       <r>  -13.9847    1.0000 </r>
       <r>  -13.9371    1.0000 </r>
       <r>  -13.9287    1.0000 </r>
       <r>  -13.8984    1.0000 </r>
       <r>  -13.7996    1.0000 </r>
       <r>  -13.7685    1.0000 </r>
       <r>  -13.7233    1.0000 </r>
       <r>  -13.7041    1.0000 </r>
       <r>  -13.3698    1.0000 </r>
       <r>   -8.1978    1.0000 </r>
       <r>   -7.8994    1.0000 </r>
       <r>   -7.7684    1.0000 </r>
       <r>   -7.7036    1.0000 </r>
       <r>   -7.4243    1.0000 </r>
       <r>   -7.3921    1.0000 </r>
       <r>   -7.3688    1.0000 </r>
       <r>   -7.3514    1.0000 </r>
       <r>   -7.3269    1.0000 </r>
       <r>   -7.2772    1.0000 </r>
       <r>   -7.2567    1.0000 </r>
       <r>   -7.2361    1.0000 </r>
       <r>   -7.2295    1.0000 </r>
       <r>   -7.2091    1.0000 </r>
       <r>   -7.1967    1.0000 </r>
       <r>   -7.1669    1.0000 </r>
       <r>   -7.1493    1.0000 </r>
       <r>   -7.1374    1.0000 </r>
       <r>   -7.1238    1.0000 </r>
       <r>   -7.1216    1.0000 </r>
       <r>   -7.1166    1.0000 </r>
       <r>   -7.0984    1.0000 </r>
       <r>   -7.0848    1.0000 </r>
       <r>   -7.0785    1.0000 </r>
       <r>   -7.0721    1.0000 </r>
       <r>   -7.0605    1.0000 </r>
       <r>   -7.0496    1.0000 </r>
       <r>   -7.0413    1.0000 </r>
       <r>   -7.0235    1.0000 </r>
       <r>   -7.0019    1.0000 </r>
       <r>   -6.8922    1.0000 </r>
       <r>   -6.5851    1.0000 </r>
       <r>   -3.5839    1.0000 </r>
       <r>   -3.4453    1.0000 </r>
       <r>   -3.3770    1.0000 </r>
       <r>   -3.3165    1.0000 </r>
       <r>   -3.2626    1.0000 </r>
       <r>   -3.2434    1.0000 </r>
       <r>   -3.2120    1.0000 </r>
       <r>   -3.1672    1.0000 </r>
       <r>   -3.0796    1.0000 </r>
       <r>   -3.0660    1.0000 </r>
       <r>   -3.0080    1.0000 </r>
       <r>   -2.8675    1.0000 </r>
       <r>   -2.6342    1.0000 </r>
       <r>   -2.3599    1.0000 </r>
       <r>   -2.2793    1.0000 </r>
       <r>   -2.1783    1.0000 </r>
       <r>   -2.1138    1.0000 </r>
       <r>   -2.0910    1.0000 </r>
       <r>   -1.9962    1.0000 </r>
       <r>   -1.9697    1.0000 </r>
       <r>   -1.9252    1.0000 </r>
       <r>   -1.8738    1.0000 </r>
       <r>   -1.8197    1.0000 </r>
       <r>   -1.8029    1.0000 </r>
       <r>   -1.7697    1.0000 </r>
       <r>   -1.7375    1.0000 </r>
       <r>   -1.7066    1.0000 </r>
       <r>   -1.6460    1.0000 </r>
       <r>   -1.6172    1.0000 </r>
       <r>   -1.5915    1.0000 </r>
       <r>   -1.5468    1.0000 </r>
       <r>   -1.5334    1.0000 </r>
       <r>   -1.5226    1.0000 </r>
       <r>   -1.4924    1.0000 </r>
       <r>   -1.4810    1.0000 </r>
       <r>   -1.4642    1.0000 </r>
       <r>   -1.4418    1.0000 </r>
       <r>   -1.4341    1.0000 </r>
       <r>   -1.4130    1.0000 </r>
       <r>   -1.3955    1.0000 </r>
       <r>   -1.3803    1.0000 </r>
       <r>   -1.3674    1.0000 </r>
       <r>   -1.3528    1.0000 </r>
       <r>   -1.3298    1.0000 </r>
       <r>   -1.3243    1.0000 </r>
       <r>   -1.3117    1.0000 </r>
       <r>   -1.2894    1.0000 </r>
       <r>   -1.2756    1.0000 </r>
       <r>   -1.2640    1.0000 </r>
       <r>   -1.2562    1.0000 </r>
       <r>   -1.2053    1.0000 </r>
       <r>   -1.1981    1.0000 </r>
       <r>   -1.1545    1.0000 </r>
       <r>   -1.1291    1.0000 </r>
       <r>   -1.1008    1.0000 </r>
       <r>   -1.0576    1.0000 </r>
       <r>   -1.0519    1.0000 </r>
       <r>   -0.9844    1.0000 </r>
       <r>   -0.9144    1.0000 </r>
       <r>   -0.8775    1.0000 </r>
       <r>   -0.8370    1.0000 </r>
       <r>   -0.7565    1.0000 </r>
       <r>   -0.6924    1.0000 </r>
       <r>   -0.6042    1.0000 </r>
       <r>   -0.2873    1.0000 </r>
       <r>   -0.1841    1.0000 </r>
       <r>   -0.0464    1.0000 </r>
       <r>    0.3849    1.0000 </r>
       <r>    0.7102    1.0000 </r>
       <r>    2.6007    0.0000 </r>
       <r>    2.7965    0.0000 </r>
       <r>    2.8409    0.0000 </r>
       <r>    2.9324    0.0000 </r>
       <r>    3.0693    0.0000 </r>
       <r>    3.0946    0.0000 </r>
       <r>    3.2086    0.0000 </r>
       <r>    3.2697    0.0000 </r>
       <r>    3.3757    0.0000 </r>
       <r>    3.4501    0.0000 </r>
       <r>    3.5843    0.0000 </r>
       <r>    3.6221    0.0000 </r>
       <r>    4.2390    0.0000 </r>
       <r>    4.8276    0.0000 </r>
       <r>    5.2987    0.0000 </r>
       <r>    5.4238    0.0000 </r>
       <r>    5.6596    0.0000 </r>
       <r>    5.7041    0.0000 </r>
       <r>    5.8190    0.0000 </r>
       <r>    5.8270    0.0000 </r>
       <r>    5.9029    0.0000 </r>
       <r>    5.9597    0.0000 </r>
       <r>    5.9754    0.0000 </r>
       <r>    6.0520    0.0000 </r>
       <r>    6.0614    0.0000 </r>
       <r>    6.1086    0.0000 </r>
       <r>    6.1972    0.0000 </r>
       <r>    6.2419    0.0000 </r>
       <r>    6.2832    0.0000 </r>
       <r>    6.3411    0.0000 </r>
       <r>    6.3658    0.0000 </r>
       <r>    6.4258    0.0000 </r>
       <r>    6.5382    0.0000 </r>
       <r>    6.5825    0.0000 </r>
       <r>    6.6227    0.0000 </r>
       <r>    6.7176    0.0000 </r>
      </set>
      <set comment="kpoint 2">
       <r>  -20.9664    1.0000 </r>
       <r>  -20.8479    1.0000 </r>
       <r>  -20.8148    1.0000 </r>
       <r>  -20.7265    1.0000 </r>
       <r>  -20.7003    1.0000 </r>
       <r>  -20.6690    1.0000 </r>
       <r>  -20.6455    1.0000 </r>
       <r>  -20.6385    1.0000 </r>
       <r>  -17.0198    1.0000 </r>
       <r>  -16.6711    1.0000 </r>
       <r>  -16.6431    1.0000 </r>
       <r>  -16.5852    1.0000 </r>
       <r>  -16.5778    1.0000 </r>
       <r>  -16.5708    1.0000 </r>
       <r>  -16.5680    1.0000 </r>
       <r>  -16.5537    1.0000 </r>
       <r>  -16.5453    1.0000 </r>
       <r>  -16.5448    1.0000 </r>
       <r>  -16.5239    1.0000 </r>
       <r>  -16.4918    1.0000 </r>
       <r>  -16.4796    1.0000 </r>
       <r>  -16.4751    1.0000 </r>
       <r>  -16.4598    1.0000 </r>
       <r>  -16.4585    1.0000 </r>
       <r>  -16.4536    1.0000 </r>
       <r>  -16.4516    1.0000 </r>
       <r>  -16.4448    1.0000 </r>
       <r>  -16.4361    1.0000 </r>
       <r>  -16.4260    1.0000 </r>
       <r>  -16.4258    1.0000 </r>
       <r>  -16.3769    1.0000 </r>
       <r>  -16.3682    1.0000 </r>
       <r>  -16.3665    1.0000 </r>
       <r>  -16.3404    1.0000 </r>
       <r>  -16.3325    1.0000 </r>
       <r>  -16.3267    1.0000 </r>
       <r>  -16.3257    1.0000 </r>
       <r>  -16.3199    1.0000 </r>
       <r>  -16.2694    1.0000 </r>
       <r>  -16.2607    1.0000 </r>
       <r>  -16.2560    1.0000 </r>
       <r>  -16.2163    1.0000 </r>
       <r>  -16.2128    1.0000 </r>
       <r>  -16.2022    1.0000 </r>
       <r>  -16.1310    1.0000 </r>
       <r>  -16.0603    1.0000 </r>
       <r>  -16.0238    1.0000 </r>
       <r>  -15.9480    1.0000 </r>
       <r>  -14.7683    1.0000 </r>
       <r>  -14.7001    1.0000 </r>
       <r>  -14.3317    1.0000 </r>
       <r>  -14.2921    1.0000 </r>
       <r>  -14.2354    1.0000 </r>
       <r>  -14.1613    1.0000 </r>
       <r>  -14.1526    1.0000 </r>
       <r>  -14.1151    1.0000 </r>
       <r>  -14.0809    1.0000 </r>
       <r>  -14.0451    1.0000 </r>
       <r>  -14.0296    1.0000 </r>
       <r>  -14.0263    1.0000 </r>
       <r>  -13.9921    1.0000 </r>
       <r>  -13.9492    1.0000 </r>
       <r>  -13.9437    1.0000 </r>
       <r>  -13.9258    1.0000 </r>
       <r>  -13.8953    1.0000 </r>
       <r>  -13.8234    1.0000 </r>
       <r>  -13.8187    1.0000 </r>
       <r>  -13.8016    1.0000 </r>
       <r>  -13.7591    1.0000 </r>
       <r>  -13.7361    1.0000 </r>
       <r>  -13.3746    1.0000 </r>
       <r>   -8.0006    1.0000 </r>
       <r>   -7.9811    1.0000 </r>
       <r>   -7.7174    1.0000 </r>
       <r>   -7.6953    1.0000 </r>
       <r>   -7.5098    1.0000 </r>
       <r>   -7.4634    1.0000 </r>
       <r>   -7.3884    1.0000 </r>
       <r>   -7.3514    1.0000 </r>
       <r>   -7.3368    1.0000 </r>
       <r>   -7.2797    1.0000 </r>
       <r>   -7.2556    1.0000 </r>
       <r>   -7.2321    1.0000 </r>
       <r>   -7.2292    1.0000 </r>
       <r>   -7.2066    1.0000 </r>
       <r>   -7.1933    1.0000 </r>
       <r>   -7.1601    1.0000 </r>
       <r>   -7.1390    1.0000 </r>
       <r>   -7.1314    1.0000 </r>
       <r>   -7.1279    1.0000 </r>
       <r>   -7.1180    1.0000 </r>
       <r>   -7.1053    1.0000 </r>
       <r>   -7.0898    1.0000 </r>
       <r>   -7.0824    1.0000 </r>
       <r>   -7.0803    1.0000 </r>
       <r>   -7.0689    1.0000 </r>
       <r>   -7.0563    1.0000 </r>
       <r>   -7.0518    1.0000 </r>
       <r>   -7.0310    1.0000 </r>
       <r>   -7.0226    1.0000 </r>
       <r>   -7.0138    1.0000 </r>
       <r>   -6.9799    1.0000 </r>
       <r>   -6.7631    1.0000 </r>
       <r>   -3.4014    1.0000 </r>
       <r>   -3.3710    1.0000 </r>
       <r>   -3.3142    1.0000 </r>
       <r>   -3.2804    1.0000 </r>
       <r>   -3.2260    1.0000 </r>
       <r>   -3.2137    1.0000 </r>
       <r>   -3.1182    1.0000 </r>
       <r>   -3.0051    1.0000 </r>
       <r>   -2.8161    1.0000 </r>
       <r>   -2.7939    1.0000 </r>
       <r>   -2.5259    1.0000 </r>
       <r>   -2.4824    1.0000 </r>
       <r>   -2.4567    1.0000 </r>
       <r>   -2.4487    1.0000 </r>
       <r>   -2.3878    1.0000 </r>
       <r>   -2.3395    1.0000 </r>
       <r>   -2.2930    1.0000 </r>
       <r>   -2.2678    1.0000 </r>
       <r>   -2.1471    1.0000 </r>
       <r>   -2.0738    1.0000 </r>
       <r>   -2.0589    1.0000 </r>
       <r>   -2.0054    1.0000 </r>
       <r>   -1.9549    1.0000 </r>
       <r>   -1.8871    1.0000 </r>
       <r>   -1.8407    1.0000 </r>
       <r>   -1.8283    1.0000 </r>
       <r>   -1.7923    1.0000 </r>
       <r>   -1.7668    1.0000 </r>
       <r>   -1.7013    1.0000 </r>
       <r>   -1.6668    1.0000 </r>
       <r>   -1.6156    1.0000 </r>
       <r>   -1.5825    1.0000 </r>
       <r>   -1.5538    1.0000 </r>
       <r>   -1.5074    1.0000 </r>
       <r>   -1.4817    1.0000 </r>
       <r>   -1.4558    1.0000 </r>
       <r>   -1.4316    1.0000 </r>
       <r>   -1.4291    1.0000 </r>
       <r>   -1.3997    1.0000 </r>
       <r>   -1.3782    1.0000 </r>
       <r>   -1.3707    1.0000 </r>
       <r>   -1.3561    1.0000 </r>
       <r>   -1.3440    1.0000 </r>
       <r>   -1.3251    1.0000 </r>
       <r>   -1.3141    1.0000 </r>
       <r>   -1.3087    1.0000 </r>
       <r>   -1.2824    1.0000 </r>
       <r>   -1.2772    1.0000 </r>
       <r>   -1.2568    1.0000 </r>
       <r>   -1.2260    1.0000 </r>
       <r>   -1.2048    1.0000 </r>
       <r>   -1.1798    1.0000 </r>
       <r>   -1.1652    1.0000 </r>
       <r>   -1.1444    1.0000 </r>
       <r>   -1.1354    1.0000 </r>
       <r>   -1.0912    1.0000 </r>
       <r>   -1.0594    1.0000 </r>
       <r>   -1.0374    1.0000 </r>
       <r>   -0.9706    1.0000 </r>
       <r>   -0.9169    1.0000 </r>
       <r>   -0.8795    1.0000 </r>
       <r>   -0.8075    1.0000 </r>
       <r>   -0.7414    1.0000 </r>
       <r>   -0.6185    1.0000 </r>
       <r>   -0.4806    1.0000 </r>
       <r>   -0.3258    1.0000 </r>
       <r>   -0.1972    1.0000 </r>
       <r>    0.1715    1.0000 </r>
       <r>    0.7414    1.0000 </r>
       <r>    2.6670    0.0000 </r>
       <r>    2.9019    0.0000 </r>
       <r>    3.0282    0.0000 </r>
       <r>    3.0626    0.0000 </r>
       <r>    3.2139    0.0000 </r>
       <r>    3.3316    0.0000 </r>
       <r>    3.3731    0.0000 </r>
       <r>    3.4567    0.0000 </r>
       <r>    4.1586    0.0000 </r>
       <r>    4.2095    0.0000 </r>
       <r>    4.3469    0.0000 </r>
       <r>    4.3772    0.0000 </r>
       <r>    4.4525    0.0000 </r>
       <r>    4.5605    0.0000 </r>
       <r>    4.6194    0.0000 </r>
       <r>    4.7792    0.0000 </r>
       <r>    4.7971    0.0000 </r>
       <r>    5.2858    0.0000 </r>
       <r>    5.4315    0.0000 </r>
       <r>    5.6268    0.0000 </r>
       <r>    5.7767    0.0000 </r>
       <r>    5.8489    0.0000 </r>
       <r>    5.8863    0.0000 </r>
       <r>    5.9553    0.0000 </r>
       <r>    5.9885    0.0000 </r>
       <r>    6.0713    0.0000 </r>
       <r>    6.1054    0.0000 </r>
       <r>    6.2034    0.0000 </r>
       <r>    6.2879    0.0000 </r>
       <r>    6.3243    0.0000 </r>
       <r>    6.3406    0.0000 </r>
       <r>    6.3988    0.0000 </r>
       <r>    6.4435    0.0000 </r>
       <r>    6.5195    0.0000 </r>
       <r>    6.5318    0.0000 </r>
       <r>    6.6949    0.0000 </r>
      </set>
      <set comment="kpoint 3">
       <r>  -20.9663    1.0000 </r>
       <r>  -20.8479    1.0000 </r>
       <r>  -20.8148    1.0000 </r>
       <r>  -20.7265    1.0000 </r>
       <r>  -20.7003    1.0000 </r>
       <r>  -20.6689    1.0000 </r>
       <r>  -20.6456    1.0000 </r>
       <r>  -20.6385    1.0000 </r>
       <r>  -17.0196    1.0000 </r>
       <r>  -16.6677    1.0000 </r>
       <r>  -16.6462    1.0000 </r>
       <r>  -16.5828    1.0000 </r>
       <r>  -16.5778    1.0000 </r>
       <r>  -16.5708    1.0000 </r>
       <r>  -16.5699    1.0000 </r>
       <r>  -16.5546    1.0000 </r>
       <r>  -16.5487    1.0000 </r>
       <r>  -16.5452    1.0000 </r>
       <r>  -16.5198    1.0000 </r>
       <r>  -16.4893    1.0000 </r>
       <r>  -16.4795    1.0000 </r>
       <r>  -16.4750    1.0000 </r>
       <r>  -16.4597    1.0000 </r>
       <r>  -16.4584    1.0000 </r>
       <r>  -16.4581    1.0000 </r>
       <r>  -16.4516    1.0000 </r>
       <r>  -16.4448    1.0000 </r>
       <r>  -16.4303    1.0000 </r>
       <r>  -16.4265    1.0000 </r>
       <r>  -16.4259    1.0000 </r>
       <r>  -16.3924    1.0000 </r>
       <r>  -16.3722    1.0000 </r>
       <r>  -16.3680    1.0000 </r>
       <r>  -16.3335    1.0000 </r>
       <r>  -16.3321    1.0000 </r>
       <r>  -16.3258    1.0000 </r>
       <r>  -16.3199    1.0000 </r>
       <r>  -16.3137    1.0000 </r>
       <r>  -16.2693    1.0000 </r>
       <r>  -16.2607    1.0000 </r>
       <r>  -16.2559    1.0000 </r>
       <r>  -16.2163    1.0000 </r>
       <r>  -16.2127    1.0000 </r>
       <r>  -16.2022    1.0000 </r>
       <r>  -16.1338    1.0000 </r>
       <r>  -16.0602    1.0000 </r>
       <r>  -16.0238    1.0000 </r>
       <r>  -15.9480    1.0000 </r>
       <r>  -14.7716    1.0000 </r>
       <r>  -14.6983    1.0000 </r>
       <r>  -14.3346    1.0000 </r>
       <r>  -14.2680    1.0000 </r>
       <r>  -14.2304    1.0000 </r>
       <r>  -14.2091    1.0000 </r>
       <r>  -14.1633    1.0000 </r>
       <r>  -14.0777    1.0000 </r>
       <r>  -14.0516    1.0000 </r>
       <r>  -14.0472    1.0000 </r>
       <r>  -14.0327    1.0000 </r>
       <r>  -14.0037    1.0000 </r>
       <r>  -13.9886    1.0000 </r>
       <r>  -13.9799    1.0000 </r>
       <r>  -13.9450    1.0000 </r>
       <r>  -13.9284    1.0000 </r>
       <r>  -13.9124    1.0000 </r>
       <r>  -13.8403    1.0000 </r>
       <r>  -13.8190    1.0000 </r>
       <r>  -13.7959    1.0000 </r>
       <r>  -13.7843    1.0000 </r>
       <r>  -13.7053    1.0000 </r>
       <r>  -13.3715    1.0000 </r>
       <r>   -8.0469    1.0000 </r>
       <r>   -7.9376    1.0000 </r>
       <r>   -7.7967    1.0000 </r>
       <r>   -7.5293    1.0000 </r>
       <r>   -7.4523    1.0000 </r>
       <r>   -7.4441    1.0000 </r>
       <r>   -7.3881    1.0000 </r>
       <r>   -7.3617    1.0000 </r>
       <r>   -7.3481    1.0000 </r>
       <r>   -7.3236    1.0000 </r>
       <r>   -7.2721    1.0000 </r>
       <r>   -7.2503    1.0000 </r>
       <r>   -7.2373    1.0000 </r>
       <r>   -7.2293    1.0000 </r>
       <r>   -7.2045    1.0000 </r>
       <r>   -7.1952    1.0000 </r>
       <r>   -7.1480    1.0000 </r>
       <r>   -7.1294    1.0000 </r>
       <r>   -7.1271    1.0000 </r>
       <r>   -7.1213    1.0000 </r>
       <r>   -7.1137    1.0000 </r>
       <r>   -7.0975    1.0000 </r>
       <r>   -7.0866    1.0000 </r>
       <r>   -7.0727    1.0000 </r>
       <r>   -7.0714    1.0000 </r>
       <r>   -7.0607    1.0000 </r>
       <r>   -7.0556    1.0000 </r>
       <r>   -7.0435    1.0000 </r>
       <r>   -7.0255    1.0000 </r>
       <r>   -7.0182    1.0000 </r>
       <r>   -6.8578    1.0000 </r>
       <r>   -6.8262    1.0000 </r>
       <r>   -3.5783    1.0000 </r>
       <r>   -3.3929    1.0000 </r>
       <r>   -3.2593    1.0000 </r>
       <r>   -3.2098    1.0000 </r>
       <r>   -3.1890    1.0000 </r>
       <r>   -3.1061    1.0000 </r>
       <r>   -3.0701    1.0000 </r>
       <r>   -3.0088    1.0000 </r>
       <r>   -2.9226    1.0000 </r>
       <r>   -2.7121    1.0000 </r>
       <r>   -2.6539    1.0000 </r>
       <r>   -2.5017    1.0000 </r>
       <r>   -2.4735    1.0000 </r>
       <r>   -2.4636    1.0000 </r>
       <r>   -2.4495    1.0000 </r>
       <r>   -2.3574    1.0000 </r>
       <r>   -2.3121    1.0000 </r>
       <r>   -2.1954    1.0000 </r>
       <r>   -2.0718    1.0000 </r>
       <r>   -2.0603    1.0000 </r>
       <r>   -2.0239    1.0000 </r>
       <r>   -1.9675    1.0000 </r>
       <r>   -1.9594    1.0000 </r>
       <r>   -1.9007    1.0000 </r>
       <r>   -1.8271    1.0000 </r>
       <r>   -1.7827    1.0000 </r>
       <r>   -1.7724    1.0000 </r>
       <r>   -1.7320    1.0000 </r>
       <r>   -1.7038    1.0000 </r>
       <r>   -1.6637    1.0000 </r>
       <r>   -1.6404    1.0000 </r>
       <r>   -1.6138    1.0000 </r>
       <r>   -1.5508    1.0000 </r>
       <r>   -1.5083    1.0000 </r>
       <r>   -1.4739    1.0000 </r>
       <r>   -1.4638    1.0000 </r>
       <r>   -1.4400    1.0000 </r>
       <r>   -1.4215    1.0000 </r>
       <r>   -1.4126    1.0000 </r>
       <r>   -1.4006    1.0000 </r>
       <r>   -1.3754    1.0000 </r>
       <r>   -1.3666    1.0000 </r>
       <r>   -1.3263    1.0000 </r>
       <r>   -1.3174    1.0000 </r>
       <r>   -1.3054    1.0000 </r>
       <r>   -1.2862    1.0000 </r>
       <r>   -1.2766    1.0000 </r>
       <r>   -1.2657    1.0000 </r>
       <r>   -1.2546    1.0000 </r>
       <r>   -1.2434    1.0000 </r>
       <r>   -1.2090    1.0000 </r>
       <r>   -1.1868    1.0000 </r>
       <r>   -1.1618    1.0000 </r>
       <r>   -1.1499    1.0000 </r>
       <r>   -1.1059    1.0000 </r>
       <r>   -1.1029    1.0000 </r>
       <r>   -1.0787    1.0000 </r>
       <r>   -1.0633    1.0000 </r>
       <r>   -0.9307    1.0000 </r>
       <r>   -0.8897    1.0000 </r>
       <r>   -0.8582    1.0000 </r>
       <r>   -0.8217    1.0000 </r>
       <r>   -0.7257    1.0000 </r>
       <r>   -0.5863    1.0000 </r>
       <r>   -0.5815    1.0000 </r>
       <r>   -0.2858    1.0000 </r>
       <r>   -0.1324    1.0000 </r>
       <r>    0.0505    1.0000 </r>
       <r>    0.7087    1.0000 </r>
       <r>    2.5118    0.0000 </r>
       <r>    2.8939    0.0000 </r>
       <r>    2.9251    0.0000 </r>
       <r>    3.0541    0.0000 </r>
       <r>    3.1159    0.0000 </r>
       <r>    3.3323    0.0000 </r>
       <r>    3.3619    0.0000 </r>
       <r>    3.4851    0.0000 </r>
       <r>    3.6715    0.0000 </r>
       <r>    4.2203    0.0000 </r>
       <r>    4.4658    0.0000 </r>
       <r>    4.5385    0.0000 </r>
       <r>    4.5649    0.0000 </r>
       <r>    4.6555    0.0000 </r>
       <r>    4.8867    0.0000 </r>
       <r>    4.9190    0.0000 </r>
       <r>    5.1488    0.0000 </r>
       <r>    5.3436    0.0000 </r>
       <r>    5.4782    0.0000 </r>
       <r>    5.6314    0.0000 </r>
       <r>    5.6730    0.0000 </r>
       <r>    5.7562    0.0000 </r>
       <r>    5.8921    0.0000 </r>
       <r>    5.9722    0.0000 </r>
       <r>    6.0090    0.0000 </r>
       <r>    6.0651    0.0000 </r>
       <r>    6.1507    0.0000 </r>
       <r>    6.1895    0.0000 </r>
       <r>    6.2839    0.0000 </r>
       <r>    6.2978    0.0000 </r>
       <r>    6.3974    0.0000 </r>
       <r>    6.4323    0.0000 </r>
       <r>    6.5025    0.0000 </r>
       <r>    6.5979    0.0000 </r>
       <r>    6.6140    0.0000 </r>
       <r>    6.6271    0.0000 </r>
      </set>
      <set comment="kpoint 4">
       <r>  -20.9663    1.0000 </r>
       <r>  -20.8479    1.0000 </r>
       <r>  -20.8148    1.0000 </r>
       <r>  -20.7265    1.0000 </r>
       <r>  -20.7003    1.0000 </r>
       <r>  -20.6689    1.0000 </r>
       <r>  -20.6456    1.0000 </r>
       <r>  -20.6385    1.0000 </r>
       <r>  -17.0196    1.0000 </r>
       <r>  -16.6666    1.0000 </r>
       <r>  -16.6431    1.0000 </r>
       <r>  -16.5830    1.0000 </r>
       <r>  -16.5779    1.0000 </r>
       <r>  -16.5707    1.0000 </r>
       <r>  -16.5681    1.0000 </r>
       <r>  -16.5514    1.0000 </r>
       <r>  -16.5453    1.0000 </r>
       <r>  -16.5449    1.0000 </r>
       <r>  -16.5238    1.0000 </r>
       <r>  -16.4906    1.0000 </r>
       <r>  -16.4796    1.0000 </r>
       <r>  -16.4751    1.0000 </r>
       <r>  -16.4599    1.0000 </r>
       <r>  -16.4585    1.0000 </r>
       <r>  -16.4583    1.0000 </r>
       <r>  -16.4516    1.0000 </r>
       <r>  -16.4448    1.0000 </r>
       <r>  -16.4368    1.0000 </r>
       <r>  -16.4261    1.0000 </r>
       <r>  -16.4259    1.0000 </r>
       <r>  -16.3819    1.0000 </r>
       <r>  -16.3683    1.0000 </r>
       <r>  -16.3671    1.0000 </r>
       <r>  -16.3368    1.0000 </r>
       <r>  -16.3324    1.0000 </r>
       <r>  -16.3267    1.0000 </r>
       <r>  -16.3257    1.0000 </r>
       <r>  -16.3199    1.0000 </r>
       <r>  -16.2694    1.0000 </r>
       <r>  -16.2608    1.0000 </r>
       <r>  -16.2560    1.0000 </r>
       <r>  -16.2163    1.0000 </r>
       <r>  -16.2128    1.0000 </r>
       <r>  -16.2022    1.0000 </r>
       <r>  -16.1355    1.0000 </r>
       <r>  -16.0612    1.0000 </r>
       <r>  -16.0238    1.0000 </r>
       <r>  -15.9480    1.0000 </r>
       <r>  -14.7710    1.0000 </r>
       <r>  -14.6999    1.0000 </r>
       <r>  -14.3106    1.0000 </r>
       <r>  -14.2889    1.0000 </r>
       <r>  -14.2663    1.0000 </r>
       <r>  -14.2341    1.0000 </r>
       <r>  -14.1427    1.0000 </r>
       <r>  -14.1315    1.0000 </r>
       <r>  -14.0562    1.0000 </r>
       <r>  -14.0459    1.0000 </r>
       <r>  -14.0051    1.0000 </r>
       <r>  -13.9662    1.0000 </r>
       <r>  -13.9542    1.0000 </r>
       <r>  -13.9445    1.0000 </r>
       <r>  -13.9237    1.0000 </r>
       <r>  -13.9069    1.0000 </r>
       <r>  -13.8796    1.0000 </r>
       <r>  -13.8474    1.0000 </r>
       <r>  -13.8378    1.0000 </r>
       <r>  -13.8170    1.0000 </r>
       <r>  -13.8051    1.0000 </r>
       <r>  -13.7421    1.0000 </r>
       <r>  -13.3770    1.0000 </r>
       <r>   -7.9209    1.0000 </r>
       <r>   -7.7936    1.0000 </r>
       <r>   -7.7313    1.0000 </r>
       <r>   -7.6914    1.0000 </r>
       <r>   -7.5637    1.0000 </r>
       <r>   -7.4884    1.0000 </r>
       <r>   -7.3896    1.0000 </r>
       <r>   -7.3516    1.0000 </r>
       <r>   -7.3432    1.0000 </r>
       <r>   -7.2827    1.0000 </r>
       <r>   -7.2576    1.0000 </r>
       <r>   -7.2432    1.0000 </r>
       <r>   -7.2336    1.0000 </r>
       <r>   -7.2193    1.0000 </r>
       <r>   -7.2018    1.0000 </r>
       <r>   -7.1951    1.0000 </r>
       <r>   -7.1766    1.0000 </r>
       <r>   -7.1497    1.0000 </r>
       <r>   -7.1329    1.0000 </r>
       <r>   -7.1260    1.0000 </r>
       <r>   -7.1206    1.0000 </r>
       <r>   -7.1069    1.0000 </r>
       <r>   -7.0973    1.0000 </r>
       <r>   -7.0810    1.0000 </r>
       <r>   -7.0715    1.0000 </r>
       <r>   -7.0666    1.0000 </r>
       <r>   -7.0587    1.0000 </r>
       <r>   -7.0516    1.0000 </r>
       <r>   -7.0355    1.0000 </r>
       <r>   -7.0209    1.0000 </r>
       <r>   -7.0160    1.0000 </r>
       <r>   -6.8629    1.0000 </r>
       <r>   -3.3820    1.0000 </r>
       <r>   -3.2317    1.0000 </r>
       <r>   -3.2152    1.0000 </r>
       <r>   -3.0914    1.0000 </r>
       <r>   -3.0241    1.0000 </r>
       <r>   -2.9280    1.0000 </r>
       <r>   -2.8575    1.0000 </r>
       <r>   -2.7055    1.0000 </r>
       <r>   -2.6360    1.0000 </r>
       <r>   -2.5978    1.0000 </r>
       <r>   -2.5541    1.0000 </r>
       <r>   -2.5352    1.0000 </r>
       <r>   -2.4938    1.0000 </r>
       <r>   -2.4307    1.0000 </r>
       <r>   -2.3989    1.0000 </r>
       <r>   -2.3599    1.0000 </r>
       <r>   -2.3538    1.0000 </r>
       <r>   -2.3314    1.0000 </r>
       <r>   -2.2860    1.0000 </r>
       <r>   -2.2017    1.0000 </r>
       <r>   -2.1527    1.0000 </r>
       <r>   -2.0321    1.0000 </r>
       <r>   -1.9893    1.0000 </r>
       <r>   -1.9612    1.0000 </r>
       <r>   -1.9260    1.0000 </r>
       <r>   -1.8723    1.0000 </r>
       <r>   -1.7953    1.0000 </r>
       <r>   -1.7718    1.0000 </r>
       <r>   -1.7389    1.0000 </r>
       <r>   -1.6949    1.0000 </r>
       <r>   -1.6840    1.0000 </r>
       <r>   -1.6272    1.0000 </r>
       <r>   -1.6195    1.0000 </r>
       <r>   -1.5964    1.0000 </r>
       <r>   -1.5713    1.0000 </r>
       <r>   -1.5401    1.0000 </r>
       <r>   -1.5211    1.0000 </r>
       <r>   -1.4766    1.0000 </r>
       <r>   -1.4474    1.0000 </r>
       <r>   -1.4287    1.0000 </r>
       <r>   -1.4155    1.0000 </r>
       <r>   -1.3825    1.0000 </r>
       <r>   -1.3631    1.0000 </r>
       <r>   -1.3345    1.0000 </r>
       <r>   -1.2976    1.0000 </r>
       <r>   -1.2752    1.0000 </r>
       <r>   -1.2691    1.0000 </r>
       <r>   -1.2538    1.0000 </r>
       <r>   -1.2287    1.0000 </r>
       <r>   -1.2032    1.0000 </r>
       <r>   -1.1916    1.0000 </r>
       <r>   -1.1666    1.0000 </r>
       <r>   -1.1442    1.0000 </r>
       <r>   -1.1330    1.0000 </r>
       <r>   -1.1154    1.0000 </r>
       <r>   -1.1099    1.0000 </r>
       <r>   -1.0794    1.0000 </r>
       <r>   -1.0354    1.0000 </r>
       <r>   -0.9929    1.0000 </r>
       <r>   -0.9382    1.0000 </r>
       <r>   -0.9102    1.0000 </r>
       <r>   -0.8736    1.0000 </r>
       <r>   -0.8075    1.0000 </r>
       <r>   -0.7859    1.0000 </r>
       <r>   -0.5660    1.0000 </r>
       <r>   -0.4074    1.0000 </r>
       <r>   -0.3825    1.0000 </r>
       <r>   -0.1726    1.0000 </r>
       <r>    0.7365    1.0000 </r>
       <r>    2.5417    0.0000 </r>
       <r>    3.1056    0.0000 </r>
       <r>    3.1716    0.0000 </r>
       <r>    3.1897    0.0000 </r>
       <r>    3.5744    0.0000 </r>
       <r>    4.1935    0.0000 </r>
       <r>    4.2757    0.0000 </r>
       <r>    4.3166    0.0000 </r>
       <r>    4.3671    0.0000 </r>
       <r>    4.4121    0.0000 </r>
       <r>    4.4671    0.0000 </r>
       <r>    4.4896    0.0000 </r>
       <r>    4.5015    0.0000 </r>
       <r>    4.5806    0.0000 </r>
       <r>    4.6214    0.0000 </r>
       <r>    4.6694    0.0000 </r>
       <r>    4.7240    0.0000 </r>
       <r>    4.8093    0.0000 </r>
       <r>    4.9021    0.0000 </r>
       <r>    4.9609    0.0000 </r>
       <r>    5.3157    0.0000 </r>
       <r>    5.5103    0.0000 </r>
       <r>    5.7822    0.0000 </r>
       <r>    5.8277    0.0000 </r>
       <r>    5.9136    0.0000 </r>
       <r>    5.9433    0.0000 </r>
       <r>    6.0646    0.0000 </r>
       <r>    6.1083    0.0000 </r>
       <r>    6.1988    0.0000 </r>
       <r>    6.3113    0.0000 </r>
       <r>    6.3228    0.0000 </r>
       <r>    6.3520    0.0000 </r>
       <r>    6.4848    0.0000 </r>
       <r>    6.5327    0.0000 </r>
       <r>    6.5639    0.0000 </r>
       <r>    6.6078    0.0000 </r>
      </set>
      <set comment="kpoint 5">
       <r>  -20.9664    1.0000 </r>
       <r>  -20.8479    1.0000 </r>
       <r>  -20.8148    1.0000 </r>
       <r>  -20.7265    1.0000 </r>
       <r>  -20.7003    1.0000 </r>
       <r>  -20.6689    1.0000 </r>
       <r>  -20.6455    1.0000 </r>
       <r>  -20.6385    1.0000 </r>
       <r>  -17.0199    1.0000 </r>
       <r>  -16.6721    1.0000 </r>
       <r>  -16.6460    1.0000 </r>
       <r>  -16.5848    1.0000 </r>
       <r>  -16.5778    1.0000 </r>
       <r>  -16.5709    1.0000 </r>
       <r>  -16.5695    1.0000 </r>
       <r>  -16.5567    1.0000 </r>
       <r>  -16.5454    1.0000 </r>
       <r>  -16.5452    1.0000 </r>
       <r>  -16.5205    1.0000 </r>
       <r>  -16.4902    1.0000 </r>
       <r>  -16.4796    1.0000 </r>
       <r>  -16.4751    1.0000 </r>
       <r>  -16.4598    1.0000 </r>
       <r>  -16.4585    1.0000 </r>
       <r>  -16.4516    1.0000 </r>
       <r>  -16.4487    1.0000 </r>
       <r>  -16.4448    1.0000 </r>
       <r>  -16.4265    1.0000 </r>
       <r>  -16.4259    1.0000 </r>
       <r>  -16.4251    1.0000 </r>
       <r>  -16.3910    1.0000 </r>
       <r>  -16.3731    1.0000 </r>
       <r>  -16.3680    1.0000 </r>
       <r>  -16.3428    1.0000 </r>
       <r>  -16.3323    1.0000 </r>
       <r>  -16.3258    1.0000 </r>
       <r>  -16.3204    1.0000 </r>
       <r>  -16.3164    1.0000 </r>
       <r>  -16.2693    1.0000 </r>
       <r>  -16.2607    1.0000 </r>
       <r>  -16.2559    1.0000 </r>
       <r>  -16.2163    1.0000 </r>
       <r>  -16.2128    1.0000 </r>
       <r>  -16.2022    1.0000 </r>
       <r>  -16.1292    1.0000 </r>
       <r>  -16.0594    1.0000 </r>
       <r>  -16.0238    1.0000 </r>
       <r>  -15.9480    1.0000 </r>
       <r>  -14.7686    1.0000 </r>
       <r>  -14.6992    1.0000 </r>
       <r>  -14.3269    1.0000 </r>
       <r>  -14.2586    1.0000 </r>
       <r>  -14.2268    1.0000 </r>
       <r>  -14.2031    1.0000 </r>
       <r>  -14.1594    1.0000 </r>
       <r>  -14.1086    1.0000 </r>
       <r>  -14.0609    1.0000 </r>
       <r>  -14.0328    1.0000 </r>
       <r>  -14.0292    1.0000 </r>
       <r>  -14.0140    1.0000 </r>
       <r>  -14.0041    1.0000 </r>
       <r>  -13.9903    1.0000 </r>
       <r>  -13.9637    1.0000 </r>
       <r>  -13.9398    1.0000 </r>
       <r>  -13.9023    1.0000 </r>
       <r>  -13.8309    1.0000 </r>
       <r>  -13.8181    1.0000 </r>
       <r>  -13.7769    1.0000 </r>
       <r>  -13.7577    1.0000 </r>
       <r>  -13.7188    1.0000 </r>
       <r>  -13.3701    1.0000 </r>
       <r>   -8.0875    1.0000 </r>
       <r>   -8.0213    1.0000 </r>
       <r>   -7.6911    1.0000 </r>
       <r>   -7.6029    1.0000 </r>
       <r>   -7.4948    1.0000 </r>
       <r>   -7.4392    1.0000 </r>
       <r>   -7.3897    1.0000 </r>
       <r>   -7.3502    1.0000 </r>
       <r>   -7.3334    1.0000 </r>
       <r>   -7.2846    1.0000 </r>
       <r>   -7.2528    1.0000 </r>
       <r>   -7.2346    1.0000 </r>
       <r>   -7.2288    1.0000 </r>
       <r>   -7.2058    1.0000 </r>
       <r>   -7.1963    1.0000 </r>
       <r>   -7.1585    1.0000 </r>
       <r>   -7.1521    1.0000 </r>
       <r>   -7.1405    1.0000 </r>
       <r>   -7.1319    1.0000 </r>
       <r>   -7.1203    1.0000 </r>
       <r>   -7.1154    1.0000 </r>
       <r>   -7.0985    1.0000 </r>
       <r>   -7.0872    1.0000 </r>
       <r>   -7.0844    1.0000 </r>
       <r>   -7.0729    1.0000 </r>
       <r>   -7.0636    1.0000 </r>
       <r>   -7.0563    1.0000 </r>
       <r>   -7.0311    1.0000 </r>
       <r>   -7.0224    1.0000 </r>
       <r>   -7.0115    1.0000 </r>
       <r>   -6.9077    1.0000 </r>
       <r>   -6.6925    1.0000 </r>
       <r>   -3.5681    1.0000 </r>
       <r>   -3.4492    1.0000 </r>
       <r>   -3.3541    1.0000 </r>
       <r>   -3.3304    1.0000 </r>
       <r>   -3.2391    1.0000 </r>
       <r>   -3.2122    1.0000 </r>
       <r>   -3.1477    1.0000 </r>
       <r>   -3.1423    1.0000 </r>
       <r>   -3.0933    1.0000 </r>
       <r>   -2.8421    1.0000 </r>
       <r>   -2.6596    1.0000 </r>
       <r>   -2.4883    1.0000 </r>
       <r>   -2.4625    1.0000 </r>
       <r>   -2.4297    1.0000 </r>
       <r>   -2.3351    1.0000 </r>
       <r>   -2.2728    1.0000 </r>
       <r>   -2.2556    1.0000 </r>
       <r>   -2.1844    1.0000 </r>
       <r>   -2.0469    1.0000 </r>
       <r>   -2.0009    1.0000 </r>
       <r>   -1.9847    1.0000 </r>
       <r>   -1.9455    1.0000 </r>
       <r>   -1.8955    1.0000 </r>
       <r>   -1.8778    1.0000 </r>
       <r>   -1.7978    1.0000 </r>
       <r>   -1.7898    1.0000 </r>
       <r>   -1.7339    1.0000 </r>
       <r>   -1.7000    1.0000 </r>
       <r>   -1.6659    1.0000 </r>
       <r>   -1.6247    1.0000 </r>
       <r>   -1.6146    1.0000 </r>
       <r>   -1.5610    1.0000 </r>
       <r>   -1.5201    1.0000 </r>
       <r>   -1.5051    1.0000 </r>
       <r>   -1.4724    1.0000 </r>
       <r>   -1.4622    1.0000 </r>
       <r>   -1.4376    1.0000 </r>
       <r>   -1.4232    1.0000 </r>
       <r>   -1.4118    1.0000 </r>
       <r>   -1.4061    1.0000 </r>
       <r>   -1.3918    1.0000 </r>
       <r>   -1.3746    1.0000 </r>
       <r>   -1.3561    1.0000 </r>
       <r>   -1.3336    1.0000 </r>
       <r>   -1.3207    1.0000 </r>
       <r>   -1.3097    1.0000 </r>
       <r>   -1.2960    1.0000 </r>
       <r>   -1.2490    1.0000 </r>
       <r>   -1.2392    1.0000 </r>
       <r>   -1.2248    1.0000 </r>
       <r>   -1.1904    1.0000 </r>
       <r>   -1.1835    1.0000 </r>
       <r>   -1.1664    1.0000 </r>
       <r>   -1.1530    1.0000 </r>
       <r>   -1.1272    1.0000 </r>
       <r>   -1.0902    1.0000 </r>
       <r>   -1.0675    1.0000 </r>
       <r>   -1.0055    1.0000 </r>
       <r>   -0.9408    1.0000 </r>
       <r>   -0.8813    1.0000 </r>
       <r>   -0.8485    1.0000 </r>
       <r>   -0.7856    1.0000 </r>
       <r>   -0.7056    1.0000 </r>
       <r>   -0.5368    1.0000 </r>
       <r>   -0.4773    1.0000 </r>
       <r>   -0.3234    1.0000 </r>
       <r>   -0.0334    1.0000 </r>
       <r>    0.2195    1.0000 </r>
       <r>    0.6961    1.0000 </r>
       <r>    2.7341    0.0000 </r>
       <r>    2.8614    0.0000 </r>
       <r>    2.9480    0.0000 </r>
       <r>    2.9733    0.0000 </r>
       <r>    3.0351    0.0000 </r>
       <r>    3.2351    0.0000 </r>
       <r>    3.2992    0.0000 </r>
       <r>    3.3969    0.0000 </r>
       <r>    3.4822    0.0000 </r>
       <r>    3.5430    0.0000 </r>
       <r>    3.9291    0.0000 </r>
       <r>    4.4338    0.0000 </r>
       <r>    4.4976    0.0000 </r>
       <r>    4.7019    0.0000 </r>
       <r>    4.7686    0.0000 </r>
       <r>    5.1276    0.0000 </r>
       <r>    5.2823    0.0000 </r>
       <r>    5.4945    0.0000 </r>
       <r>    5.6440    0.0000 </r>
       <r>    5.7181    0.0000 </r>
       <r>    5.8600    0.0000 </r>
       <r>    5.9195    0.0000 </r>
       <r>    5.9671    0.0000 </r>
       <r>    6.0138    0.0000 </r>
       <r>    6.0521    0.0000 </r>
       <r>    6.1714    0.0000 </r>
       <r>    6.1997    0.0000 </r>
       <r>    6.2366    0.0000 </r>
       <r>    6.2640    0.0000 </r>
       <r>    6.3263    0.0000 </r>
       <r>    6.3716    0.0000 </r>
       <r>    6.3914    0.0000 </r>
       <r>    6.4430    0.0000 </r>
       <r>    6.5023    0.0000 </r>
       <r>    6.5507    0.0000 </r>
       <r>    6.6292    0.0000 </r>
      </set>
      <set comment="kpoint 6">
       <r>  -20.9663    1.0000 </r>
       <r>  -20.8479    1.0000 </r>
       <r>  -20.8148    1.0000 </r>
       <r>  -20.7265    1.0000 </r>
       <r>  -20.7003    1.0000 </r>
       <r>  -20.6690    1.0000 </r>
       <r>  -20.6455    1.0000 </r>
       <r>  -20.6385    1.0000 </r>
       <r>  -17.0198    1.0000 </r>
       <r>  -16.6710    1.0000 </r>
       <r>  -16.6428    1.0000 </r>
       <r>  -16.5849    1.0000 </r>
       <r>  -16.5778    1.0000 </r>
       <r>  -16.5708    1.0000 </r>
       <r>  -16.5676    1.0000 </r>
       <r>  -16.5536    1.0000 </r>
       <r>  -16.5453    1.0000 </r>
       <r>  -16.5417    1.0000 </r>
       <r>  -16.5240    1.0000 </r>
       <r>  -16.4920    1.0000 </r>
       <r>  -16.4795    1.0000 </r>
       <r>  -16.4751    1.0000 </r>
       <r>  -16.4598    1.0000 </r>
       <r>  -16.4585    1.0000 </r>
       <r>  -16.4515    1.0000 </r>
       <r>  -16.4495    1.0000 </r>
       <r>  -16.4448    1.0000 </r>
       <r>  -16.4318    1.0000 </r>
       <r>  -16.4258    1.0000 </r>
       <r>  -16.4257    1.0000 </r>
       <r>  -16.3770    1.0000 </r>
       <r>  -16.3709    1.0000 </r>
       <r>  -16.3682    1.0000 </r>
       <r>  -16.3432    1.0000 </r>
       <r>  -16.3344    1.0000 </r>
       <r>  -16.3319    1.0000 </r>
       <r>  -16.3258    1.0000 </r>
       <r>  -16.3193    1.0000 </r>
       <r>  -16.2694    1.0000 </r>
       <r>  -16.2607    1.0000 </r>
       <r>  -16.2560    1.0000 </r>
       <r>  -16.2163    1.0000 </r>
       <r>  -16.2128    1.0000 </r>
       <r>  -16.2022    1.0000 </r>
       <r>  -16.1311    1.0000 </r>
       <r>  -16.0602    1.0000 </r>
       <r>  -16.0238    1.0000 </r>
       <r>  -15.9480    1.0000 </r>
       <r>  -14.7681    1.0000 </r>
       <r>  -14.7002    1.0000 </r>
       <r>  -14.3055    1.0000 </r>
       <r>  -14.2912    1.0000 </r>
       <r>  -14.2695    1.0000 </r>
       <r>  -14.1769    1.0000 </r>
       <r>  -14.1589    1.0000 </r>
       <r>  -14.1236    1.0000 </r>
       <r>  -14.1147    1.0000 </r>
       <r>  -14.0297    1.0000 </r>
       <r>  -14.0269    1.0000 </r>
       <r>  -14.0038    1.0000 </r>
       <r>  -13.9885    1.0000 </r>
       <r>  -13.9408    1.0000 </r>
       <r>  -13.9078    1.0000 </r>
       <r>  -13.8863    1.0000 </r>
       <r>  -13.8665    1.0000 </r>
       <r>  -13.8520    1.0000 </r>
       <r>  -13.8125    1.0000 </r>
       <r>  -13.8072    1.0000 </r>
       <r>  -13.7834    1.0000 </r>
       <r>  -13.7668    1.0000 </r>
       <r>  -13.3749    1.0000 </r>
       <r>   -7.9514    1.0000 </r>
       <r>   -7.9046    1.0000 </r>
       <r>   -7.7764    1.0000 </r>
       <r>   -7.7198    1.0000 </r>
       <r>   -7.4508    1.0000 </r>
       <r>   -7.3971    1.0000 </r>
       <r>   -7.3620    1.0000 </r>
       <r>   -7.3459    1.0000 </r>
       <r>   -7.3381    1.0000 </r>
       <r>   -7.2978    1.0000 </r>
       <r>   -7.2569    1.0000 </r>
       <r>   -7.2512    1.0000 </r>
       <r>   -7.2444    1.0000 </r>
       <r>   -7.2178    1.0000 </r>
       <r>   -7.2055    1.0000 </r>
       <r>   -7.1887    1.0000 </r>
       <r>   -7.1773    1.0000 </r>
       <r>   -7.1396    1.0000 </r>
       <r>   -7.1277    1.0000 </r>
       <r>   -7.1255    1.0000 </r>
       <r>   -7.1181    1.0000 </r>
       <r>   -7.1056    1.0000 </r>
       <r>   -7.0967    1.0000 </r>
       <r>   -7.0814    1.0000 </r>
       <r>   -7.0741    1.0000 </r>
       <r>   -7.0663    1.0000 </r>
       <r>   -7.0602    1.0000 </r>
       <r>   -7.0473    1.0000 </r>
[...]
        <r>  0.0000  0.0010  0.0005 </r>
        <r>  0.0001  0.0027  0.0001 </r>
        <r>  0.0013  0.0008  0.0008 </r>
        <r>  0.0010  0.0039  0.0013 </r>
        <r>  0.0001  0.0032  0.0007 </r>
        <r>  0.0017  0.0006  0.0016 </r>
        <r>  0.0000  0.0024  0.0011 </r>
        <r>  0.0003  0.0061  0.0015 </r>
        <r>  0.0003  0.0018  0.0003 </r>
       </set>
       <set comment="band 199">
        <r>  0.0023  0.0007  0.0078 </r>
        <r>  0.0005  0.0000  0.0032 </r>
        <r>  0.0003  0.0009  0.0037 </r>
        <r>  0.0064  0.0003  0.0208 </r>
        <r>  0.0008  0.0001  0.0025 </r>
        <r>  0.0020  0.0003  0.0089 </r>
        <r>  0.0009  0.0016  0.0051 </r>
        <r>  0.0036  0.0018  0.0068 </r>
        <r>  0.0000  0.0018  0.0001 </r>
        <r>  0.0000  0.0029  0.0001 </r>
        <r>  0.0001  0.0005  0.0003 </r>
        <r>  0.0000  0.0021  0.0002 </r>
        <r>  0.0001  0.0160  0.0002 </r>
        <r>  0.0000  0.0084  0.0001 </r>
        <r>  0.0001  0.0045  0.0009 </r>
        <r>  0.0000  0.0046  0.0010 </r>
        <r>  0.0002  0.0030  0.0015 </r>
        <r>  0.0004  0.0064  0.0003 </r>
        <r>  0.0004  0.0027  0.0005 </r>
        <r>  0.0000  0.0029  0.0016 </r>
        <r>  0.0014  0.0004  0.0027 </r>
        <r>  0.0001  0.0033  0.0012 </r>
        <r>  0.0000  0.0004  0.0009 </r>
        <r>  0.0006  0.0012  0.0017 </r>
        <r>  0.0000  0.0031  0.0011 </r>
        <r>  0.0004  0.0016  0.0011 </r>
        <r>  0.0000  0.0012  0.0005 </r>
        <r>  0.0000  0.0031  0.0001 </r>
        <r>  0.0001  0.0004  0.0003 </r>
        <r>  0.0005  0.0014  0.0011 </r>
        <r>  0.0003  0.0013  0.0005 </r>
        <r>  0.0005  0.0003  0.0006 </r>
        <r>  0.0002  0.0009  0.0007 </r>
        <r>  0.0008  0.0028  0.0010 </r>
        <r>  0.0002  0.0052  0.0015 </r>
        <r>  0.0001  0.0059  0.0004 </r>
        <r>  0.0006  0.0013  0.0004 </r>
        <r>  0.0035  0.0027  0.0015 </r>
        <r>  0.0000  0.0011  0.0024 </r>
       </set>
       <set comment="band 200">
        <r>  0.0003  0.0006  0.0080 </r>
        <r>  0.0004  0.0005  0.0018 </r>
        <r>  0.0059  0.0007  0.0198 </r>
        <r>  0.0036  0.0001  0.0062 </r>
        <r>  0.0002  0.0001  0.0070 </r>
        <r>  0.0031  0.0002  0.0039 </r>
        <r>  0.0000  0.0015  0.0020 </r>
        <r>  0.0006  0.0028  0.0245 </r>
        <r>  0.0001  0.0012  0.0002 </r>
        <r>  0.0001  0.0036  0.0003 </r>
        <r>  0.0000  0.0067  0.0003 </r>
        <r>  0.0000  0.0025  0.0002 </r>
        <r>  0.0000  0.0123  0.0003 </r>
        <r>  0.0005  0.0029  0.0002 </r>
        <r>  0.0001  0.0032  0.0005 </r>
        <r>  0.0005  0.0051  0.0011 </r>
        <r>  0.0017  0.0015  0.0026 </r>
        <r>  0.0016  0.0020  0.0044 </r>
        <r>  0.0001  0.0004  0.0007 </r>
        <r>  0.0017  0.0011  0.0009 </r>
        <r>  0.0001  0.0056  0.0014 </r>
        <r>  0.0000  0.0040  0.0013 </r>
        <r>  0.0005  0.0019  0.0003 </r>
        <r>  0.0003  0.0019  0.0005 </r>
        <r>  0.0009  0.0008  0.0009 </r>
        <r>  0.0000  0.0007  0.0008 </r>
        <r>  0.0003  0.0009  0.0003 </r>
        <r>  0.0001  0.0012  0.0011 </r>
        <r>  0.0001  0.0022  0.0004 </r>
        <r>  0.0001  0.0009  0.0003 </r>
        <r>  0.0005  0.0001  0.0006 </r>
        <r>  0.0001  0.0014  0.0005 </r>
        <r>  0.0001  0.0032  0.0015 </r>
        <r>  0.0003  0.0008  0.0005 </r>
        <r>  0.0002  0.0017  0.0009 </r>
        <r>  0.0000  0.0010  0.0008 </r>
        <r>  0.0003  0.0074  0.0006 </r>
        <r>  0.0035  0.0032  0.0022 </r>
        <r>  0.0000  0.0043  0.0010 </r>
       </set>
       <set comment="band 201">
        <r>  0.0090  0.0018  0.0050 </r>
        <r>  0.0004  0.0006  0.0039 </r>
        <r>  0.0000  0.0009  0.0051 </r>
        <r>  0.0001  0.0002  0.0018 </r>
        <r>  0.0000  0.0012  0.0072 </r>
        <r>  0.0052  0.0013  0.0033 </r>
        <r>  0.0038  0.0002  0.0169 </r>
        <r>  0.0008  0.0005  0.0057 </r>
        <r>  0.0000  0.0034  0.0000 </r>
        <r>  0.0004  0.0047  0.0002 </r>
        <r>  0.0000  0.0040  0.0001 </r>
        <r>  0.0000  0.0054  0.0001 </r>
        <r>  0.0000  0.0111  0.0004 </r>
        <r>  0.0000  0.0003  0.0001 </r>
        <r>  0.0000  0.0082  0.0003 </r>
        <r>  0.0000  0.0192  0.0010 </r>
        <r>  0.0000  0.0067  0.0005 </r>
        <r>  0.0002  0.0021  0.0004 </r>
        <r>  0.0000  0.0022  0.0002 </r>
        <r>  0.0044  0.0079  0.0024 </r>
        <r>  0.0007  0.0000  0.0013 </r>
        <r>  0.0018  0.0013  0.0018 </r>
        <r>  0.0002  0.0008  0.0017 </r>
        <r>  0.0000  0.0014  0.0011 </r>
        <r>  0.0001  0.0019  0.0002 </r>
        <r>  0.0001  0.0017  0.0016 </r>
        <r>  0.0000  0.0031  0.0002 </r>
        <r>  0.0002  0.0024  0.0011 </r>
        <r>  0.0000  0.0031  0.0005 </r>
        <r>  0.0012  0.0021  0.0011 </r>
        <r>  0.0006  0.0005  0.0005 </r>
        <r>  0.0014  0.0014  0.0019 </r>
        <r>  0.0016  0.0010  0.0009 </r>
        <r>  0.0002  0.0013  0.0006 </r>
        <r>  0.0008  0.0021  0.0019 </r>
        <r>  0.0000  0.0009  0.0007 </r>
        <r>  0.0009  0.0064  0.0008 </r>
        <r>  0.0000  0.0031  0.0014 </r>
        <r>  0.0000  0.0016  0.0019 </r>
       </set>
       <set comment="band 202">
        <r>  0.0039  0.0015  0.0127 </r>
        <r>  0.0020  0.0005  0.0047 </r>
        <r>  0.0012  0.0011  0.0157 </r>
        <r>  0.0001  0.0008  0.0052 </r>
        <r>  0.0042  0.0004  0.0004 </r>
        <r>  0.0012  0.0013  0.0066 </r>
        <r>  0.0015  0.0001  0.0043 </r>
        <r>  0.0024  0.0001  0.0285 </r>
        <r>  0.0000  0.0060  0.0002 </r>
        <r>  0.0000  0.0039  0.0002 </r>
        <r>  0.0000  0.0005  0.0001 </r>
        <r>  0.0000  0.0047  0.0002 </r>
        <r>  0.0000  0.0052  0.0002 </r>
        <r>  0.0001  0.0158  0.0005 </r>
        <r>  0.0002  0.0036  0.0000 </r>
        <r>  0.0001  0.0056  0.0001 </r>
        <r>  0.0002  0.0005  0.0006 </r>
        <r>  0.0009  0.0095  0.0036 </r>
        <r>  0.0000  0.0045  0.0007 </r>
        <r>  0.0006  0.0016  0.0007 </r>
        <r>  0.0001  0.0033  0.0009 </r>
        <r>  0.0001  0.0009  0.0020 </r>
        <r>  0.0026  0.0014  0.0036 </r>
        <r>  0.0000  0.0005  0.0010 </r>
        <r>  0.0003  0.0014  0.0005 </r>
        <r>  0.0001  0.0009  0.0005 </r>
        <r>  0.0000  0.0009  0.0005 </r>
        <r>  0.0031  0.0014  0.0057 </r>
        <r>  0.0002  0.0013  0.0004 </r>
        <r>  0.0002  0.0011  0.0005 </r>
        <r>  0.0001  0.0004  0.0007 </r>
        <r>  0.0001  0.0015  0.0003 </r>
        <r>  0.0001  0.0003  0.0005 </r>
        <r>  0.0013  0.0030  0.0007 </r>
        <r>  0.0000  0.0013  0.0003 </r>
        <r>  0.0005  0.0007  0.0007 </r>
        <r>  0.0001  0.0010  0.0003 </r>
        <r>  0.0008  0.0036  0.0010 </r>
        <r>  0.0000  0.0013  0.0019 </r>
       </set>
       <set comment="band 203">
        <r>  0.0025  0.0002  0.0061 </r>
        <r>  0.0014  0.0005  0.0052 </r>
        <r>  0.0002  0.0023  0.0110 </r>
        <r>  0.0009  0.0006  0.0055 </r>
        <r>  0.0068  0.0016  0.0067 </r>
        <r>  0.0000  0.0003  0.0034 </r>
        <r>  0.0009  0.0006  0.0133 </r>
        <r>  0.0067  0.0001  0.0109 </r>
        <r>  0.0000  0.0051  0.0001 </r>
        <r>  0.0001  0.0068  0.0005 </r>
        <r>  0.0000  0.0017  0.0000 </r>
        <r>  0.0001  0.0020  0.0002 </r>
        <r>  0.0000  0.0092  0.0003 </r>
        <r>  0.0001  0.0008  0.0005 </r>
        <r>  0.0000  0.0170  0.0002 </r>
        <r>  0.0000  0.0052  0.0004 </r>
        <r>  0.0009  0.0016  0.0010 </r>
        <r>  0.0004  0.0037  0.0020 </r>
        <r>  0.0015  0.0045  0.0022 </r>
        <r>  0.0003  0.0012  0.0011 </r>
        <r>  0.0004  0.0045  0.0025 </r>
        <r>  0.0002  0.0017  0.0004 </r>
        <r>  0.0005  0.0060  0.0012 </r>
        <r>  0.0019  0.0031  0.0015 </r>
        <r>  0.0002  0.0015  0.0010 </r>
        <r>  0.0000  0.0008  0.0017 </r>
        <r>  0.0003  0.0023  0.0007 </r>
        <r>  0.0006  0.0004  0.0004 </r>
        <r>  0.0000  0.0038  0.0009 </r>
        <r>  0.0000  0.0007  0.0004 </r>
        <r>  0.0014  0.0014  0.0014 </r>
        <r>  0.0001  0.0006  0.0006 </r>
        <r>  0.0004  0.0041  0.0011 </r>
        <r>  0.0007  0.0037  0.0006 </r>
        <r>  0.0001  0.0016  0.0017 </r>
        <r>  0.0005  0.0004  0.0020 </r>
        <r>  0.0001  0.0000  0.0008 </r>
        <r>  0.0007  0.0056  0.0011 </r>
        <r>  0.0008  0.0036  0.0010 </r>
       </set>
       <set comment="band 204">
        <r>  0.0001  0.0002  0.0051 </r>
        <r>  0.0011  0.0005  0.0115 </r>
        <r>  0.0023  0.0003  0.0088 </r>
        <r>  0.0012  0.0033  0.0067 </r>
        <r>  0.0035  0.0003  0.0114 </r>
        <r>  0.0012  0.0003  0.0042 </r>
        <r>  0.0006  0.0016  0.0189 </r>
        <r>  0.0014  0.0003  0.0175 </r>
        <r>  0.0001  0.0030  0.0006 </r>
        <r>  0.0000  0.0098  0.0004 </r>
        <r>  0.0000  0.0016  0.0002 </r>
        <r>  0.0000  0.0014  0.0001 </r>
        <r>  0.0001  0.0034  0.0004 </r>
        <r>  0.0000  0.0039  0.0007 </r>
        <r>  0.0001  0.0096  0.0003 </r>
        <r>  0.0001  0.0054  0.0006 </r>
        <r>  0.0001  0.0024  0.0006 </r>
        <r>  0.0004  0.0016  0.0019 </r>
        <r>  0.0000  0.0051  0.0005 </r>
        <r>  0.0004  0.0020  0.0013 </r>
        <r>  0.0016  0.0001  0.0029 </r>
        <r>  0.0008  0.0001  0.0008 </r>
        <r>  0.0002  0.0006  0.0020 </r>
        <r>  0.0003  0.0010  0.0006 </r>
        <r>  0.0002  0.0037  0.0003 </r>
        <r>  0.0004  0.0019  0.0035 </r>
        <r>  0.0010  0.0024  0.0026 </r>
        <r>  0.0000  0.0011  0.0008 </r>
        <r>  0.0002  0.0003  0.0009 </r>
        <r>  0.0002  0.0032  0.0015 </r>
        <r>  0.0001  0.0014  0.0005 </r>
        <r>  0.0004  0.0017  0.0012 </r>
        <r>  0.0000  0.0005  0.0009 </r>
        <r>  0.0002  0.0015  0.0011 </r>
        <r>  0.0005  0.0031  0.0010 </r>
        <r>  0.0003  0.0023  0.0014 </r>
        <r>  0.0007  0.0031  0.0016 </r>
        <r>  0.0003  0.0029  0.0004 </r>
        <r>  0.0005  0.0009  0.0021 </r>
       </set>
       <set comment="band 205">
        <r>  0.0001  0.0010  0.0086 </r>
        <r>  0.0117  0.0021  0.0070 </r>
        <r>  0.0011  0.0007  0.0065 </r>
        <r>  0.0000  0.0007  0.0131 </r>
        <r>  0.0000  0.0011  0.0076 </r>
        <r>  0.0029  0.0011  0.0029 </r>
        <r>  0.0013  0.0004  0.0177 </r>
        <r>  0.0001  0.0006  0.0010 </r>
        <r>  0.0001  0.0025  0.0002 </r>
        <r>  0.0000  0.0080  0.0001 </r>
        <r>  0.0000  0.0108  0.0002 </r>
        <r>  0.0000  0.0019  0.0001 </r>
        <r>  0.0001  0.0033  0.0001 </r>
        <r>  0.0000  0.0024  0.0004 </r>
        <r>  0.0000  0.0059  0.0004 </r>
        <r>  0.0000  0.0056  0.0005 </r>
        <r>  0.0000  0.0053  0.0009 </r>
        <r>  0.0000  0.0010  0.0009 </r>
        <r>  0.0036  0.0028  0.0027 </r>
        <r>  0.0000  0.0004  0.0013 </r>
        <r>  0.0003  0.0034  0.0008 </r>
        <r>  0.0022  0.0030  0.0032 </r>
        <r>  0.0003  0.0020  0.0003 </r>
        <r>  0.0000  0.0014  0.0005 </r>
        <r>  0.0000  0.0008  0.0014 </r>
        <r>  0.0002  0.0005  0.0025 </r>
        <r>  0.0009  0.0030  0.0016 </r>
        <r>  0.0001  0.0012  0.0001 </r>
        <r>  0.0031  0.0003  0.0023 </r>
        <r>  0.0001  0.0003  0.0003 </r>
        <r>  0.0002  0.0047  0.0012 </r>
        <r>  0.0005  0.0013  0.0006 </r>
        <r>  0.0001  0.0037  0.0005 </r>
        <r>  0.0003  0.0017  0.0008 </r>
        <r>  0.0002  0.0038  0.0007 </r>
        <r>  0.0003  0.0015  0.0011 </r>
        <r>  0.0019  0.0033  0.0020 </r>
        <r>  0.0000  0.0009  0.0005 </r>
        <r>  0.0003  0.0011  0.0010 </r>
       </set>
       <set comment="band 206">
        <r>  0.0001  0.0015  0.0418 </r>
        <r>  0.0001  0.0001  0.0099 </r>
        <r>  0.0020  0.0004  0.0067 </r>
        <r>  0.0007  0.0008  0.0117 </r>
        <r>  0.0000  0.0004  0.0105 </r>
        <r>  0.0007  0.0004  0.0053 </r>
        <r>  0.0000  0.0005  0.0117 </r>
        <r>  0.0000  0.0005  0.0147 </r>
        <r>  0.0000  0.0015  0.0013 </r>
        <r>  0.0000  0.0031  0.0005 </r>
        <r>  0.0001  0.0026  0.0003 </r>
        <r>  0.0000  0.0023  0.0001 </r>
        <r>  0.0000  0.0081  0.0002 </r>
        <r>  0.0000  0.0048  0.0002 </r>
        <r>  0.0000  0.0021  0.0005 </r>
        <r>  0.0000  0.0139  0.0002 </r>
        <r>  0.0007  0.0012  0.0020 </r>
        <r>  0.0003  0.0008  0.0011 </r>
        <r>  0.0000  0.0006  0.0008 </r>
        <r>  0.0001  0.0004  0.0017 </r>
        <r>  0.0003  0.0002  0.0009 </r>
        <r>  0.0004  0.0023  0.0017 </r>
        <r>  0.0002  0.0007  0.0006 </r>
        <r>  0.0014  0.0021  0.0032 </r>
        <r>  0.0011  0.0007  0.0022 </r>
        <r>  0.0001  0.0006  0.0024 </r>
        <r>  0.0001  0.0002  0.0006 </r>
        <r>  0.0007  0.0020  0.0014 </r>
        <r>  0.0000  0.0005  0.0018 </r>
        <r>  0.0009  0.0004  0.0018 </r>
        <r>  0.0001  0.0009  0.0013 </r>
        <r>  0.0000  0.0022  0.0005 </r>
        <r>  0.0000  0.0021  0.0010 </r>
        <r>  0.0001  0.0002  0.0007 </r>
        <r>  0.0007  0.0015  0.0011 </r>
        <r>  0.0001  0.0027  0.0006 </r>
        <r>  0.0001  0.0006  0.0009 </r>
        <r>  0.0009  0.0016  0.0017 </r>
        <r>  0.0010  0.0004  0.0011 </r>
       </set>
       <set comment="band 207">
        <r>  0.0003  0.0008  0.0159 </r>
        <r>  0.0008  0.0004  0.0089 </r>
        <r>  0.0009  0.0001  0.0141 </r>
        <r>  0.0064  0.0002  0.0078 </r>
        <r>  0.0006  0.0013  0.0173 </r>
        <r>  0.0022  0.0004  0.0079 </r>
        <r>  0.0003  0.0002  0.0071 </r>
        <r>  0.0002  0.0010  0.0160 </r>
        <r>  0.0000  0.0089  0.0004 </r>
        <r>  0.0000  0.0043  0.0001 </r>
        <r>  0.0001  0.0018  0.0005 </r>
        <r>  0.0001  0.0017  0.0007 </r>
        <r>  0.0000  0.0127  0.0004 </r>
        <r>  0.0000  0.0079  0.0001 </r>
        <r>  0.0001  0.0050  0.0003 </r>
        <r>  0.0001  0.0054  0.0013 </r>
        <r>  0.0003  0.0017  0.0007 </r>
        <r>  0.0002  0.0007  0.0005 </r>
        <r>  0.0001  0.0038  0.0004 </r>
        <r>  0.0003  0.0010  0.0005 </r>
        <r>  0.0008  0.0011  0.0018 </r>
        <r>  0.0016  0.0020  0.0020 </r>
        <r>  0.0000  0.0011  0.0009 </r>
        <r>  0.0002  0.0034  0.0031 </r>
        <r>  0.0000  0.0008  0.0007 </r>
        <r>  0.0006  0.0014  0.0005 </r>
        <r>  0.0000  0.0007  0.0012 </r>
        <r>  0.0017  0.0013  0.0027 </r>
        <r>  0.0000  0.0008  0.0005 </r>
        <r>  0.0005  0.0013  0.0013 </r>
        <r>  0.0013  0.0008  0.0023 </r>
        <r>  0.0001  0.0050  0.0009 </r>
        <r>  0.0002  0.0008  0.0014 </r>
        <r>  0.0004  0.0008  0.0016 </r>
        <r>  0.0012  0.0036  0.0014 </r>
        <r>  0.0026  0.0008  0.0032 </r>
        <r>  0.0000  0.0010  0.0022 </r>
        <r>  0.0001  0.0027  0.0005 </r>
        <r>  0.0001  0.0024  0.0013 </r>
       </set>
       <set comment="band 208">
        <r>  0.0001  0.0002  0.0075 </r>
        <r>  0.0005  0.0004  0.0112 </r>
        <r>  0.0032  0.0006  0.0146 </r>
        <r>  0.0001  0.0009  0.0242 </r>
        <r>  0.0005  0.0008  0.0119 </r>
        <r>  0.0000  0.0006  0.0079 </r>
        <r>  0.0002  0.0026  0.0126 </r>
        <r>  0.0000  0.0014  0.0144 </r>
        <r>  0.0000  0.0044  0.0004 </r>
        <r>  0.0000  0.0105  0.0003 </r>
        <r>  0.0001  0.0007  0.0001 </r>
        <r>  0.0000  0.0055  0.0004 </r>
        <r>  0.0000  0.0018  0.0002 </r>
        <r>  0.0001  0.0059  0.0003 </r>
        <r>  0.0000  0.0074  0.0003 </r>
        <r>  0.0004  0.0073  0.0005 </r>
        <r>  0.0000  0.0012  0.0019 </r>
        <r>  0.0005  0.0008  0.0010 </r>
        <r>  0.0003  0.0011  0.0014 </r>
        <r>  0.0002  0.0050  0.0012 </r>
        <r>  0.0005  0.0007  0.0023 </r>
        <r>  0.0001  0.0009  0.0006 </r>
        <r>  0.0002  0.0009  0.0005 </r>
        <r>  0.0004  0.0027  0.0022 </r>
        <r>  0.0000  0.0010  0.0003 </r>
        <r>  0.0000  0.0019  0.0009 </r>
        <r>  0.0001  0.0008  0.0009 </r>
        <r>  0.0006  0.0003  0.0006 </r>
        <r>  0.0003  0.0032  0.0011 </r>
        <r>  0.0011  0.0021  0.0026 </r>
        <r>  0.0000  0.0009  0.0008 </r>
        <r>  0.0006  0.0005  0.0009 </r>
        <r>  0.0002  0.0028  0.0009 </r>
        <r>  0.0003  0.0013  0.0017 </r>
        <r>  0.0014  0.0025  0.0035 </r>
        <r>  0.0000  0.0022  0.0019 </r>
        <r>  0.0001  0.0012  0.0022 </r>
        <r>  0.0000  0.0038  0.0003 </r>
        <r>  0.0003  0.0024  0.0027 </r>
       </set>
      </set>
     </set>
    </set>
   </array>
  </projected>
 </calculation>
 <structure name="finalpos" >
  <crystal>
   <varray name="basis" >
    <v>       8.45648900       0.00000000       8.04030100 </v>
    <v>       0.00000000      11.72984700       0.00000000 </v>
    <v>      -8.45648900       0.00000000       8.04030100 </v>
   </varray>
   <i name="volume">   1595.08833419 </i>
   <varray name="rec_basis" >
    <v>       0.05912619      -0.00000000       0.06218673 </v>
    <v>       0.00000000       0.08525260      -0.00000000 </v>
    <v>      -0.05912619       0.00000000       0.06218673 </v>
   </varray>
  </crystal>
  <varray name="positions" >
   <v>       0.25343400       0.23787300       0.19466300 </v>
   <v>       0.77427100       0.24427400       0.71736200 </v>
   <v>       0.76414100       0.76183600       0.25924700 </v>
   <v>       0.19762400       0.75011900       0.77196100 </v>
   <v>       0.29911500       0.25128600       0.73276100 </v>
   <v>       0.78495400       0.24523100       0.22735900 </v>
   <v>       0.73552700       0.75184600       0.80556500 </v>
   <v>       0.21624100       0.75406100       0.28696900 </v>
   <v>       0.99825200       0.00080300       0.99783800 </v>
   <v>       0.49956400       0.00236100       0.48750700 </v>
   <v>       0.49438800       0.00119200       0.99410300 </v>
   <v>       0.00493000       0.00037700       0.50535800 </v>
   <v>       0.50086300       0.50593200       0.00335900 </v>
   <v>       0.00598100       0.49373000       0.50384600 </v>
   <v>       0.99990600       0.49797300       0.00193900 </v>
   <v>       0.50587200       0.48822900       0.50658600 </v>
   <v>       0.46647800       0.75210600       0.95359500 </v>
   <v>       0.97989100       0.74679900       0.48818300 </v>
   <v>       0.96664300       0.25010700       0.97693600 </v>
   <v>       0.45711500       0.24195800       0.45491700 </v>
   <v>       0.01846300       0.74947300       0.02975600 </v>
   <v>       0.51914800       0.25476800       0.03320800 </v>
   <v>       0.03738100       0.24748800       0.54881200 </v>
   <v>       0.24774600       0.47082600       0.95409600 </v>
   <v>       0.75190200       0.45382800       0.45895200 </v>
   <v>       0.84548700       0.53014500       0.85299100 </v>
   <v>       0.54671100       0.03148200       0.74058200 </v>
   <v>       0.03719800       0.02464900       0.25463500 </v>
   <v>       0.74776200       0.97685200       0.04054300 </v>
   <v>       0.25560400       0.95979800       0.54743300 </v>
   <v>       0.24308900       0.03024500       0.93946000 </v>
   <v>       0.74744800       0.02899500       0.44920300 </v>
   <v>       0.43719900       0.97371500       0.23787300 </v>
   <v>       0.94371600       0.96865600       0.74993300 </v>
   <v>       0.75106900       0.52931600       0.05634500 </v>
   <v>       0.25951100       0.53263900       0.55386500 </v>
   <v>       0.55387500       0.47616200       0.76587600 </v>
   <v>       0.05110800       0.46903500       0.25683700 </v>
   <v>       0.55128700       0.66180700       0.40846000 </v>
  </varray>
 </structure>
</modeling>
