CsPbBr3 cubic bulk                      
           1
     8.456489    0.000000    8.040301
     0.000000   11.729847    0.000000
    -8.456489    0.000000    8.040301
   Cs   Pb   Br
   8   8  23
Direct configuration=     1
   0.25343400  0.23787300  0.19466300
   0.77427100  0.24427400  0.71736200
   0.76414100  0.76183600  0.25924700
   0.19762400  0.75011900  0.77196100
   0.29911500  0.25128600  0.73276100
   0.78495400  0.24523100  0.22735900
   0.73552700  0.75184600  0.80556500
   0.21624100  0.75406100  0.28696900
   0.99825200  0.00080300  0.99783800
   0.49956400  0.00236100  0.48750700
   0.49438800  0.00119200  0.99410300
   0.00493000  0.00037700  0.50535800
   0.50086300  0.50593200  0.00335900
   0.00598100  0.49373000  0.50384600
   0.99990600  0.49797300  0.00193900
   0.50587200  0.48822900  0.50658600
   0.46647800  0.75210600  0.95359500
   0.97989100  0.74679900  0.48818300
   0.96664300  0.25010700  0.97693600
   0.45711500  0.24195800  0.45491700
   0.01846300  0.74947300  0.02975600
   0.51914800  0.25476800  0.03320800
   0.03738100  0.24748800  0.54881200
   0.24774600  0.47082600  0.95409600
   0.75190200  0.45382800  0.45895200
   0.84548700  0.53014500  0.85299100
   0.54671100  0.03148200  0.74058200
   0.03719800  0.02464900  0.25463500
   0.74776200  0.97685200  0.04054300
   0.25560400  0.95979800  0.54743300
   0.24308900  0.03024500  0.93946000
   0.74744800  0.02899500  0.44920300
   0.43719900  0.97371500  0.23787300
   0.94371600  0.96865600  0.74993300
   0.75106900  0.52931600  0.05634500
   0.25951100  0.53263900  0.55386500
   0.55387500  0.47616200  0.76587600
   0.05110800  0.46903500  0.25683700
   0.55128700  0.66180700  0.40846000
