  40  40   1   0
  0.4040437E+02  0.1173535E-08  0.1173535E-08  0.1173535E-08  0.5000000E-15
   1.0000000000000000E-004
  CAR 
 CsPbBr3 cubic bulk                      
      8.41189026    -21.82048572  301      0.67744074      1.00000000
    -21.820  0.0000E+00  0.0000E+00
    -21.720  0.0000E+00  0.0000E+00
    -21.619  0.0000E+00  0.0000E+00
    -21.518  0.0000E+00  0.0000E+00
    -21.417  0.0000E+00  0.0000E+00
    -21.317  0.0000E+00  0.0000E+00
    -21.216  0.0000E+00  0.0000E+00
    -21.115  0.0000E+00  0.0000E+00
    -21.014  0.0000E+00  0.0000E+00
    -20.914  0.0000E+00  0.0000E+00
    -20.813  0.0000E+00  0.0000E+00
    -20.712  0.0000E+00  0.0000E+00
    -20.611  0.0000E+00  0.0000E+00
    -20.510  0.0000E+00  0.0000E+00
    -20.410  0.1588E+03  0.1600E+02
    -20.309  0.0000E+00  0.1600E+02
    -20.208  0.0000E+00  0.1600E+02
    -20.107  0.0000E+00  0.1600E+02
    -20.007  0.0000E+00  0.1600E+02
    -19.906  0.0000E+00  0.1600E+02
    -19.805  0.0000E+00  0.1600E+02
    -19.704  0.0000E+00  0.1600E+02
    -19.603  0.0000E+00  0.1600E+02
    -19.503  0.0000E+00  0.1600E+02
    -19.402  0.0000E+00  0.1600E+02
    -19.301  0.0000E+00  0.1600E+02
    -19.200  0.0000E+00  0.1600E+02
    -19.100  0.0000E+00  0.1600E+02
    -18.999  0.0000E+00  0.1600E+02
    -18.898  0.0000E+00  0.1600E+02
    -18.797  0.0000E+00  0.1600E+02
    -18.696  0.0000E+00  0.1600E+02
    -18.596  0.0000E+00  0.1600E+02
    -18.495  0.0000E+00  0.1600E+02
    -18.394  0.0000E+00  0.1600E+02
    -18.293  0.0000E+00  0.1600E+02
    -18.193  0.0000E+00  0.1600E+02
    -18.092  0.0000E+00  0.1600E+02
    -17.991  0.0000E+00  0.1600E+02
    -17.890  0.0000E+00  0.1600E+02
    -17.790  0.0000E+00  0.1600E+02
    -17.689  0.0000E+00  0.1600E+02
    -17.588  0.0000E+00  0.1600E+02
    -17.487  0.0000E+00  0.1600E+02
    -17.386  0.0000E+00  0.1600E+02
    -17.286  0.8170E+02  0.2423E+02
    -17.185  0.3175E+03  0.9600E+02
    -17.084  0.0000E+00  0.9600E+02
    -16.983  0.0000E+00  0.9600E+02
    -16.883  0.0000E+00  0.9600E+02
    -16.782  0.0000E+00  0.9600E+02
    -16.681  0.0000E+00  0.9600E+02
    -16.580  0.0000E+00  0.9600E+02
    -16.479  0.0000E+00  0.9600E+02
    -16.379  0.0000E+00  0.9600E+02
    -16.278  0.0000E+00  0.9600E+02
    -16.177  0.0000E+00  0.9600E+02
    -16.076  0.0000E+00  0.9600E+02
    -15.976  0.0000E+00  0.9600E+02
    -15.875  0.0000E+00  0.9600E+02
    -15.774  0.0000E+00  0.9600E+02
    -15.673  0.0000E+00  0.9600E+02
    -15.572  0.0000E+00  0.9600E+02
    -15.472  0.0000E+00  0.9600E+02
    -15.371  0.0000E+00  0.9600E+02
    -15.270  0.0000E+00  0.9600E+02
    -15.169  0.0000E+00  0.9600E+02
    -15.069  0.0000E+00  0.9600E+02
    -14.968  0.0000E+00  0.9600E+02
    -14.867  0.1377E-15  0.9600E+02
    -14.766  0.1016E+03  0.1062E+03
    -14.665  0.7441E+01  0.1120E+03
    -14.565  0.0000E+00  0.1120E+03
    -14.464  0.1494E-01  0.1120E+03
    -14.363  0.8661E+02  0.1210E+03
    -14.262  0.2977E+02  0.1280E+03
    -14.162  0.0000E+00  0.1280E+03
    -14.061  0.3985E-03  0.1280E+03
    -13.960  0.2400E+02  0.1304E+03
    -13.859  0.9675E+02  0.1440E+03
    -13.759  0.0000E+00  0.1440E+03
    -13.658  0.0000E+00  0.1440E+03
    -13.557  0.0000E+00  0.1440E+03
    -13.456  0.0000E+00  0.1440E+03
    -13.355  0.0000E+00  0.1440E+03
    -13.255  0.0000E+00  0.1440E+03
    -13.154  0.0000E+00  0.1440E+03
    -13.053  0.0000E+00  0.1440E+03
    -12.952  0.0000E+00  0.1440E+03
    -12.852  0.0000E+00  0.1440E+03
    -12.751  0.0000E+00  0.1440E+03
    -12.650  0.0000E+00  0.1440E+03
    -12.549  0.0000E+00  0.1440E+03
    -12.448  0.0000E+00  0.1440E+03
    -12.348  0.0000E+00  0.1440E+03
    -12.247  0.0000E+00  0.1440E+03
    -12.146  0.0000E+00  0.1440E+03
    -12.045  0.0000E+00  0.1440E+03
    -11.945  0.0000E+00  0.1440E+03
    -11.844  0.0000E+00  0.1440E+03
    -11.743  0.0000E+00  0.1440E+03
    -11.642  0.0000E+00  0.1440E+03
    -11.541  0.0000E+00  0.1440E+03
    -11.441  0.0000E+00  0.1440E+03
    -11.340  0.0000E+00  0.1440E+03
    -11.239  0.0000E+00  0.1440E+03
    -11.138  0.0000E+00  0.1440E+03
    -11.038  0.0000E+00  0.1440E+03
    -10.937  0.0000E+00  0.1440E+03
    -10.836  0.0000E+00  0.1440E+03
    -10.735  0.0000E+00  0.1440E+03
    -10.635  0.0000E+00  0.1440E+03
    -10.534  0.0000E+00  0.1440E+03
    -10.433  0.0000E+00  0.1440E+03
    -10.332  0.0000E+00  0.1440E+03
    -10.231  0.0000E+00  0.1440E+03
    -10.131  0.0000E+00  0.1440E+03
    -10.030  0.0000E+00  0.1440E+03
     -9.929  0.0000E+00  0.1440E+03
     -9.828  0.0000E+00  0.1440E+03
     -9.728  0.0000E+00  0.1440E+03
     -9.627  0.0000E+00  0.1440E+03
     -9.526  0.0000E+00  0.1440E+03
     -9.425  0.0000E+00  0.1440E+03
     -9.324  0.0000E+00  0.1440E+03
     -9.224  0.0000E+00  0.1440E+03
     -9.123  0.0000E+00  0.1440E+03
     -9.022  0.0000E+00  0.1440E+03
     -8.921  0.0000E+00  0.1440E+03
     -8.821  0.0000E+00  0.1440E+03
     -8.720  0.0000E+00  0.1440E+03
     -8.619  0.0000E+00  0.1440E+03
     -8.518  0.0000E+00  0.1440E+03
     -8.417  0.0000E+00  0.1440E+03
     -8.317  0.0000E+00  0.1440E+03
     -8.216  0.0000E+00  0.1440E+03
     -8.115  0.3289E+01  0.1443E+03
     -8.014  0.6801E+02  0.1516E+03
     -7.914  0.6437E+02  0.1590E+03
     -7.813  0.6755E+01  0.1597E+03
     -7.712  0.2481E+01  0.1600E+03
     -7.611  0.0000E+00  0.1600E+03
     -7.510  0.0000E+00  0.1600E+03
     -7.410  0.2432E+01  0.1602E+03
     -7.309  0.7699E+02  0.1685E+03
     -7.208  0.2709E+02  0.1720E+03
     -7.107  0.1528E+02  0.1750E+03
     -7.007  0.8410E+02  0.1842E+03
     -6.906  0.4663E+02  0.1904E+03
     -6.805  0.8473E+02  0.2013E+03
     -6.704  0.2222E+02  0.2080E+03
     -6.604  0.0000E+00  0.2080E+03
     -6.503  0.0000E+00  0.2080E+03
     -6.402  0.0000E+00  0.2080E+03
     -6.301  0.0000E+00  0.2080E+03
     -6.200  0.0000E+00  0.2080E+03
     -6.100  0.0000E+00  0.2080E+03
     -5.999  0.0000E+00  0.2080E+03
     -5.898  0.0000E+00  0.2080E+03
     -5.797  0.0000E+00  0.2080E+03
     -5.697  0.0000E+00  0.2080E+03
     -5.596  0.0000E+00  0.2080E+03
     -5.495  0.0000E+00  0.2080E+03
     -5.394  0.0000E+00  0.2080E+03
     -5.293  0.0000E+00  0.2080E+03
     -5.193  0.0000E+00  0.2080E+03
     -5.092  0.0000E+00  0.2080E+03
     -4.991  0.0000E+00  0.2080E+03
     -4.890  0.0000E+00  0.2080E+03
     -4.790  0.0000E+00  0.2080E+03
     -4.689  0.0000E+00  0.2080E+03
     -4.588  0.0000E+00  0.2080E+03
     -4.487  0.0000E+00  0.2080E+03
     -4.386  0.0000E+00  0.2080E+03
     -4.286  0.0000E+00  0.2080E+03
     -4.185  0.0000E+00  0.2080E+03
     -4.084  0.0000E+00  0.2080E+03
     -3.983  0.0000E+00  0.2080E+03
     -3.883  0.0000E+00  0.2080E+03
     -3.782  0.0000E+00  0.2080E+03
     -3.681  0.0000E+00  0.2080E+03
     -3.580  0.0000E+00  0.2080E+03
     -3.480  0.0000E+00  0.2080E+03
     -3.379  0.0000E+00  0.2080E+03
     -3.278  0.0000E+00  0.2080E+03
     -3.177  0.0000E+00  0.2080E+03
     -3.076  0.0000E+00  0.2080E+03
     -2.976  0.0000E+00  0.2080E+03
     -2.875  0.0000E+00  0.2080E+03
     -2.774  0.1021E-01  0.2080E+03
     -2.673  0.3832E+02  0.2121E+03
     -2.573  0.4472E+02  0.2173E+03
     -2.472  0.5698E+02  0.2235E+03
     -2.371  0.7323E+02  0.2309E+03
     -2.270  0.4690E+02  0.2367E+03
     -2.169  0.1706E+02  0.2397E+03
     -2.069  0.8327E+02  0.2506E+03
     -1.968  0.2646E+02  0.2569E+03
     -1.867  0.5761E+02  0.2651E+03
     -1.766  0.3194E+02  0.2707E+03
     -1.666  0.3499E+02  0.2743E+03
     -1.565  0.3823E+02  0.2801E+03
     -1.464  0.4634E+02  0.2849E+03
     -1.363  0.2728E+02  0.2877E+03
     -1.262  0.9937E+01  0.2888E+03
     -1.162  0.3584E+02  0.2934E+03
     -1.061  0.7477E+02  0.3020E+03
     -0.960  0.4991E+02  0.3075E+03
     -0.859  0.7490E+02  0.3160E+03
     -0.759  0.2081E+02  0.3188E+03
     -0.658  0.8911E+01  0.3206E+03
     -0.557  0.7079E+02  0.3289E+03
     -0.456  0.4175E+02  0.3335E+03
     -0.355  0.1732E+02  0.3360E+03
     -0.255  0.0000E+00  0.3360E+03
     -0.154  0.7094E-05  0.3360E+03
     -0.053  0.2481E+01  0.3362E+03
      0.048  0.4168E+01  0.3367E+03
      0.148  0.1164E+02  0.3384E+03
      0.249  0.3988E+02  0.3425E+03
      0.350  0.1500E+02  0.3445E+03
      0.451  0.3715E+02  0.3492E+03
      0.551  0.1721E+02  0.3510E+03
      0.652  0.0000E+00  0.3520E+03
      0.753  0.0000E+00  0.3520E+03
      0.854  0.0000E+00  0.3520E+03
      0.955  0.0000E+00  0.3520E+03
      1.055  0.0000E+00  0.3520E+03
      1.156  0.0000E+00  0.3520E+03
      1.257  0.0000E+00  0.3520E+03
      1.358  0.0000E+00  0.3520E+03
      1.458  0.0000E+00  0.3520E+03
      1.559  0.0000E+00  0.3520E+03
      1.660  0.0000E+00  0.3520E+03
      1.761  0.0000E+00  0.3520E+03
      1.862  0.0000E+00  0.3520E+03
      1.962  0.0000E+00  0.3520E+03
      2.063  0.0000E+00  0.3520E+03
      2.164  0.0000E+00  0.3520E+03
      2.265  0.5058E-02  0.3520E+03
      2.365  0.3103E+01  0.3526E+03
      2.466  0.3409E+02  0.3564E+03
      2.567  0.3436E+02  0.3600E+03
      2.668  0.5244E+01  0.3628E+03
      2.769  0.2703E+02  0.3690E+03
      2.869  0.3164E+02  0.3724E+03
      2.970  0.3751E+02  0.3773E+03
      3.071  0.3955E+02  0.3825E+03
      3.172  0.3488E+02  0.3868E+03
      3.272  0.9923E+01  0.3892E+03
      3.373  0.9991E+01  0.3903E+03
      3.474  0.1387E+02  0.3926E+03
      3.575  0.9913E+01  0.3942E+03
      3.675  0.2788E+02  0.3971E+03
      3.776  0.1078E+02  0.3988E+03
      3.877  0.2481E+01  0.3992E+03
      3.978  0.4962E+01  0.3997E+03
      4.079  0.2481E+01  0.4000E+03
      4.179  0.0000E+00  0.4000E+03
      4.280  0.0000E+00  0.4000E+03
      4.381  0.0000E+00  0.4000E+03
      4.482  0.0000E+00  0.4000E+03
      4.582  0.0000E+00  0.4000E+03
      4.683  0.0000E+00  0.4000E+03
      4.784  0.0000E+00  0.4000E+03
      4.885  0.0000E+00  0.4000E+03
      4.986  0.1622E-10  0.4000E+03
      5.086  0.2481E+01  0.4002E+03
      5.187  0.0000E+00  0.4002E+03
      5.288  0.0000E+00  0.4002E+03
      5.389  0.0000E+00  0.4002E+03
      5.489  0.0000E+00  0.4002E+03
      5.590  0.7112E-08  0.4003E+03
      5.691  0.7629E+01  0.4010E+03
      5.792  0.0000E+00  0.4018E+03
      5.893  0.0000E+00  0.4018E+03
      5.993  0.1474E-03  0.4018E+03
      6.094  0.3132E+02  0.4049E+03
      6.195  0.9927E+01  0.4068E+03
      6.296  0.2466E+02  0.4092E+03
      6.396  0.2726E+02  0.4122E+03
      6.497  0.5057E+02  0.4173E+03
      6.598  0.3508E+02  0.4213E+03
      6.699  0.2905E+02  0.4277E+03
      6.799  0.2209E+02  0.4300E+03
      6.900  0.2144E-06  0.4313E+03
      7.001  0.4955E+01  0.4317E+03
      7.102  0.2481E+01  0.4320E+03
      7.203  0.0000E+00  0.4320E+03
      7.303  0.0000E+00  0.4320E+03
      7.404  0.0000E+00  0.4320E+03
      7.505  0.0000E+00  0.4320E+03
      7.606  0.0000E+00  0.4320E+03
      7.706  0.0000E+00  0.4320E+03
      7.807  0.0000E+00  0.4320E+03
      7.908  0.0000E+00  0.4320E+03
      8.009  0.0000E+00  0.4320E+03
      8.110  0.0000E+00  0.4320E+03
      8.210  0.0000E+00  0.4320E+03
      8.311  0.0000E+00  0.4320E+03
      8.412  0.0000E+00  0.4320E+03
      8.41189026    -21.82048572  301      0.67744074      1.00000000
    -21.820  0.0000E+00  0.0000E+00  0.0000E+00
    -21.720  0.0000E+00  0.0000E+00  0.0000E+00
    -21.619  0.0000E+00  0.0000E+00  0.0000E+00
    -21.518  0.0000E+00  0.0000E+00  0.0000E+00
    -21.417  0.0000E+00  0.0000E+00  0.0000E+00
    -21.317  0.0000E+00  0.0000E+00  0.0000E+00
    -21.216  0.0000E+00  0.0000E+00  0.0000E+00
    -21.115  0.0000E+00  0.0000E+00  0.0000E+00
    -21.014  0.0000E+00  0.0000E+00  0.0000E+00
    -20.914  0.0000E+00  0.0000E+00  0.0000E+00
    -20.813  0.0000E+00  0.0000E+00  0.0000E+00
    -20.712  0.0000E+00  0.0000E+00  0.0000E+00
    -20.611  0.0000E+00  0.0000E+00  0.0000E+00
    -20.510  0.0000E+00  0.0000E+00  0.0000E+00
    -20.410  0.1654E+02  0.1590E-01  0.5104E-02
    -20.309  0.0000E+00  0.0000E+00  0.0000E+00
    -20.208  0.0000E+00  0.0000E+00  0.0000E+00
    -20.107  0.0000E+00  0.0000E+00  0.0000E+00
    -20.007  0.0000E+00  0.0000E+00  0.0000E+00
    -19.906  0.0000E+00  0.0000E+00  0.0000E+00
    -19.805  0.0000E+00  0.0000E+00  0.0000E+00
    -19.704  0.0000E+00  0.0000E+00  0.0000E+00
    -19.603  0.0000E+00  0.0000E+00  0.0000E+00
    -19.503  0.0000E+00  0.0000E+00  0.0000E+00
    -19.402  0.0000E+00  0.0000E+00  0.0000E+00
    -19.301  0.0000E+00  0.0000E+00  0.0000E+00
    -19.200  0.0000E+00  0.0000E+00  0.0000E+00
    -19.100  0.0000E+00  0.0000E+00  0.0000E+00
    -18.999  0.0000E+00  0.0000E+00  0.0000E+00
    -18.898  0.0000E+00  0.0000E+00  0.0000E+00
    -18.797  0.0000E+00  0.0000E+00  0.0000E+00
    -18.696  0.0000E+00  0.0000E+00  0.0000E+00
    -18.596  0.0000E+00  0.0000E+00  0.0000E+00
    -18.495  0.0000E+00  0.0000E+00  0.0000E+00
    -18.394  0.0000E+00  0.0000E+00  0.0000E+00
    -18.293  0.0000E+00  0.0000E+00  0.0000E+00
    -18.193  0.0000E+00  0.0000E+00  0.0000E+00
    -18.092  0.0000E+00  0.0000E+00  0.0000E+00
    -17.991  0.0000E+00  0.0000E+00  0.0000E+00
    -17.890  0.0000E+00  0.0000E+00  0.0000E+00
    -17.790  0.0000E+00  0.0000E+00  0.0000E+00
    -17.689  0.0000E+00  0.0000E+00  0.0000E+00
    -17.588  0.0000E+00  0.0000E+00  0.0000E+00
    -17.487  0.0000E+00  0.0000E+00  0.0000E+00
    -17.386  0.0000E+00  0.0000E+00  0.0000E+00
    -17.286  0.9704E-03  0.3577E-03  0.5836E-04
    -17.185  0.5340E-03  0.2049E-03  0.3462E-04
    -17.084  0.0000E+00  0.0000E+00  0.0000E+00
    -16.983  0.0000E+00  0.0000E+00  0.0000E+00
    -16.883  0.0000E+00  0.0000E+00  0.0000E+00
    -16.782  0.0000E+00  0.0000E+00  0.0000E+00
    -16.681  0.0000E+00  0.0000E+00  0.0000E+00
    -16.580  0.0000E+00  0.0000E+00  0.0000E+00
    -16.479  0.0000E+00  0.0000E+00  0.0000E+00
    -16.379  0.0000E+00  0.0000E+00  0.0000E+00
    -16.278  0.0000E+00  0.0000E+00  0.0000E+00
    -16.177  0.0000E+00  0.0000E+00  0.0000E+00
    -16.076  0.0000E+00  0.0000E+00  0.0000E+00
    -15.976  0.0000E+00  0.0000E+00  0.0000E+00
    -15.875  0.0000E+00  0.0000E+00  0.0000E+00
    -15.774  0.0000E+00  0.0000E+00  0.0000E+00
    -15.673  0.0000E+00  0.0000E+00  0.0000E+00
    -15.572  0.0000E+00  0.0000E+00  0.0000E+00
    -15.472  0.0000E+00  0.0000E+00  0.0000E+00
    -15.371  0.0000E+00  0.0000E+00  0.0000E+00
    -15.270  0.0000E+00  0.0000E+00  0.0000E+00
    -15.169  0.0000E+00  0.0000E+00  0.0000E+00
    -15.069  0.0000E+00  0.0000E+00  0.0000E+00
    -14.968  0.0000E+00  0.0000E+00  0.0000E+00
    -14.867  0.4272E-20  0.9925E-18  0.7489E-19
    -14.766  0.2889E-02  0.7195E+00  0.5533E-01
    -14.665  0.1479E-03  0.5348E-01  0.4256E-02
    -14.565  0.0000E+00  0.0000E+00  0.0000E+00
    -14.464  0.7991E-14  0.5136E-04  0.9344E-05
    -14.363  0.2727E-02  0.2848E+00  0.5414E-01
    -14.262  0.6726E-04  0.9004E-01  0.1756E-01
    -14.162  0.0000E+00  0.0000E+00  0.0000E+00
    -14.061  0.3257E-05  0.3827E-06  0.9114E-07
    -13.960  0.1836E+00  0.2450E-01  0.5583E-02
    -13.859  0.7570E+00  0.1119E+00  0.2559E-01
    -13.759  0.0000E+00  0.0000E+00  0.0000E+00
    -13.658  0.0000E+00  0.0000E+00  0.0000E+00
    -13.557  0.0000E+00  0.0000E+00  0.0000E+00
    -13.456  0.0000E+00  0.0000E+00  0.0000E+00
    -13.355  0.0000E+00  0.0000E+00  0.0000E+00
    -13.255  0.0000E+00  0.0000E+00  0.0000E+00
    -13.154  0.0000E+00  0.0000E+00  0.0000E+00
    -13.053  0.0000E+00  0.0000E+00  0.0000E+00
    -12.952  0.0000E+00  0.0000E+00  0.0000E+00
    -12.852  0.0000E+00  0.0000E+00  0.0000E+00
    -12.751  0.0000E+00  0.0000E+00  0.0000E+00
    -12.650  0.0000E+00  0.0000E+00  0.0000E+00
    -12.549  0.0000E+00  0.0000E+00  0.0000E+00
    -12.448  0.0000E+00  0.0000E+00  0.0000E+00
    -12.348  0.0000E+00  0.0000E+00  0.0000E+00
    -12.247  0.0000E+00  0.0000E+00  0.0000E+00
    -12.146  0.0000E+00  0.0000E+00  0.0000E+00
    -12.045  0.0000E+00  0.0000E+00  0.0000E+00
    -11.945  0.0000E+00  0.0000E+00  0.0000E+00
    -11.844  0.0000E+00  0.0000E+00  0.0000E+00
    -11.743  0.0000E+00  0.0000E+00  0.0000E+00
    -11.642  0.0000E+00  0.0000E+00  0.0000E+00
    -11.541  0.0000E+00  0.0000E+00  0.0000E+00
    -11.441  0.0000E+00  0.0000E+00  0.0000E+00
    -11.340  0.0000E+00  0.0000E+00  0.0000E+00
    -11.239  0.0000E+00  0.0000E+00  0.0000E+00
    -11.138  0.0000E+00  0.0000E+00  0.0000E+00
    -11.038  0.0000E+00  0.0000E+00  0.0000E+00
    -10.937  0.0000E+00  0.0000E+00  0.0000E+00
    -10.836  0.0000E+00  0.0000E+00  0.0000E+00
    -10.735  0.0000E+00  0.0000E+00  0.0000E+00
    -10.635  0.0000E+00  0.0000E+00  0.0000E+00
    -10.534  0.0000E+00  0.0000E+00  0.0000E+00
    -10.433  0.0000E+00  0.0000E+00  0.0000E+00
    -10.332  0.0000E+00  0.0000E+00  0.0000E+00
    -10.231  0.0000E+00  0.0000E+00  0.0000E+00
    -10.131  0.0000E+00  0.0000E+00  0.0000E+00
    -10.030  0.0000E+00  0.0000E+00  0.0000E+00
     -9.929  0.0000E+00  0.0000E+00  0.0000E+00
     -9.828  0.0000E+00  0.0000E+00  0.0000E+00
     -9.728  0.0000E+00  0.0000E+00  0.0000E+00
     -9.627  0.0000E+00  0.0000E+00  0.0000E+00
     -9.526  0.0000E+00  0.0000E+00  0.0000E+00
     -9.425  0.0000E+00  0.0000E+00  0.0000E+00
     -9.324  0.0000E+00  0.0000E+00  0.0000E+00
     -9.224  0.0000E+00  0.0000E+00  0.0000E+00
     -9.123  0.0000E+00  0.0000E+00  0.0000E+00
     -9.022  0.0000E+00  0.0000E+00  0.0000E+00
     -8.921  0.0000E+00  0.0000E+00  0.0000E+00
     -8.821  0.0000E+00  0.0000E+00  0.0000E+00
     -8.720  0.0000E+00  0.0000E+00  0.0000E+00
     -8.619  0.0000E+00  0.0000E+00  0.0000E+00
     -8.518  0.0000E+00  0.0000E+00  0.0000E+00
     -8.417  0.0000E+00  0.0000E+00  0.0000E+00
     -8.317  0.0000E+00  0.0000E+00  0.0000E+00
     -8.216  0.0000E+00  0.0000E+00  0.0000E+00
     -8.115  0.4016E-04  0.5761E-01  0.2664E-03
     -8.014  0.1830E-02  0.1080E+01  0.5620E-02
     -7.914  0.4393E-02  0.4602E+00  0.5159E-02
     -7.813  0.7293E-03  0.6034E-01  0.9080E-03
     -7.712  0.8552E-03  0.2946E-01  0.1328E-03
     -7.611  0.0000E+00  0.0000E+00  0.0000E+00
     -7.510  0.0000E+00  0.0000E+00  0.0000E+00
     -7.410  0.1653E-05  0.1630E+00  0.2572E-03
     -7.309  0.4515E-03  0.5161E+01  0.7916E-02
     -7.208  0.6505E-03  0.1598E+01  0.2025E-02
     -7.107  0.1608E-03  0.1069E+01  0.1240E-02
     -7.007  0.8251E-03  0.5943E+01  0.6802E-02
     -6.906  0.1628E-02  0.3446E+01  0.2390E-02
     -6.805  0.7808E-02  0.6880E+01  0.1238E-02
     -6.704  0.7965E-03  0.1723E+01  0.3027E-03
     -6.604  0.0000E+00  0.0000E+00  0.0000E+00
     -6.503  0.0000E+00  0.0000E+00  0.0000E+00
     -6.402  0.0000E+00  0.0000E+00  0.0000E+00
     -6.301  0.0000E+00  0.0000E+00  0.0000E+00
     -6.200  0.0000E+00  0.0000E+00  0.0000E+00
     -6.100  0.0000E+00  0.0000E+00  0.0000E+00
     -5.999  0.0000E+00  0.0000E+00  0.0000E+00
     -5.898  0.0000E+00  0.0000E+00  0.0000E+00
     -5.797  0.0000E+00  0.0000E+00  0.0000E+00
     -5.697  0.0000E+00  0.0000E+00  0.0000E+00
     -5.596  0.0000E+00  0.0000E+00  0.0000E+00
     -5.495  0.0000E+00  0.0000E+00  0.0000E+00
     -5.394  0.0000E+00  0.0000E+00  0.0000E+00
     -5.293  0.0000E+00  0.0000E+00  0.0000E+00
     -5.193  0.0000E+00  0.0000E+00  0.0000E+00
     -5.092  0.0000E+00  0.0000E+00  0.0000E+00
     -4.991  0.0000E+00  0.0000E+00  0.0000E+00
     -4.890  0.0000E+00  0.0000E+00  0.0000E+00
     -4.790  0.0000E+00  0.0000E+00  0.0000E+00
     -4.689  0.0000E+00  0.0000E+00  0.0000E+00
     -4.588  0.0000E+00  0.0000E+00  0.0000E+00
     -4.487  0.0000E+00  0.0000E+00  0.0000E+00
     -4.386  0.0000E+00  0.0000E+00  0.0000E+00
     -4.286  0.0000E+00  0.0000E+00  0.0000E+00
     -4.185  0.0000E+00  0.0000E+00  0.0000E+00
     -4.084  0.0000E+00  0.0000E+00  0.0000E+00
     -3.983  0.0000E+00  0.0000E+00  0.0000E+00
     -3.883  0.0000E+00  0.0000E+00  0.0000E+00
     -3.782  0.0000E+00  0.0000E+00  0.0000E+00
     -3.681  0.0000E+00  0.0000E+00  0.0000E+00
     -3.580  0.0000E+00  0.0000E+00  0.0000E+00
     -3.480  0.0000E+00  0.0000E+00  0.0000E+00
     -3.379  0.0000E+00  0.0000E+00  0.0000E+00
     -3.278  0.0000E+00  0.0000E+00  0.0000E+00
     -3.177  0.0000E+00  0.0000E+00  0.0000E+00
     -3.076  0.0000E+00  0.0000E+00  0.0000E+00
     -2.976  0.0000E+00  0.0000E+00  0.0000E+00
     -2.875  0.0000E+00  0.0000E+00  0.0000E+00
     -2.774  0.1191E-14  0.1689E-05  0.1367E-04
     -2.673  0.2715E-02  0.3803E-01  0.5324E-01
     -2.573  0.3450E-02  0.3126E-01  0.4344E-01
     -2.472  0.3223E-01  0.3080E-01  0.1439E+00
     -2.371  0.8527E-02  0.6108E-01  0.8995E-01
     -2.270  0.4640E-02  0.8624E-01  0.7698E-01
     -2.169  0.2213E-02  0.1670E-01  0.3535E-01
     -2.069  0.1283E-01  0.5211E-01  0.1318E+00
     -1.968  0.5282E-02  0.1990E-01  0.3346E-01
     -1.867  0.6186E-02  0.3160E-01  0.9436E-01
     -1.766  0.2852E-02  0.5832E-01  0.3966E-01
     -1.666  0.1190E-01  0.1348E-01  0.3845E-01
     -1.565  0.1586E-01  0.2512E-01  0.3385E-01
     -1.464  0.5106E-01  0.2156E-01  0.7472E-01
     -1.363  0.3357E-01  0.1445E-01  0.4306E-01
     -1.262  0.9734E-02  0.3250E-01  0.1112E-01
     -1.162  0.2623E-01  0.9487E-01  0.3228E-01
     -1.061  0.9538E-01  0.3046E+00  0.6722E-01
     -0.960  0.6515E-01  0.2280E+00  0.3545E-01
     -0.859  0.1293E+00  0.4468E+00  0.6991E-01
     -0.759  0.4212E-01  0.1453E+00  0.1141E-01
     -0.658  0.4145E-12  0.1180E+00  0.2111E-01
     -0.557  0.7601E-02  0.1119E+01  0.2100E+00
     -0.456  0.1801E-01  0.5914E+00  0.1314E+00
     -0.355  0.3360E-04  0.2778E+00  0.6182E-01
     -0.255  0.0000E+00  0.0000E+00  0.0000E+00
     -0.154  0.7976E-09  0.1380E-06  0.2337E-07
     -0.053  0.2789E-03  0.4827E-01  0.8174E-02
      0.048  0.8615E-03  0.1441E+00  0.2069E-01
      0.148  0.3532E-03  0.2644E+00  0.3674E-01
      0.249  0.2229E-02  0.6522E+00  0.9193E-01
      0.350  0.8951E-03  0.3597E+00  0.5219E-01
      0.451  0.1819E-02  0.9946E+00  0.1410E+00
      0.551  0.5157E-03  0.5330E+00  0.7285E-01
      0.652  0.0000E+00  0.0000E+00  0.0000E+00
      0.753  0.0000E+00  0.0000E+00  0.0000E+00
      0.854  0.0000E+00  0.0000E+00  0.0000E+00
      0.955  0.0000E+00  0.0000E+00  0.0000E+00
      1.055  0.0000E+00  0.0000E+00  0.0000E+00
      1.156  0.0000E+00  0.0000E+00  0.0000E+00
      1.257  0.0000E+00  0.0000E+00  0.0000E+00
      1.358  0.0000E+00  0.0000E+00  0.0000E+00
      1.458  0.0000E+00  0.0000E+00  0.0000E+00
      1.559  0.0000E+00  0.0000E+00  0.0000E+00
      1.660  0.0000E+00  0.0000E+00  0.0000E+00
      1.761  0.0000E+00  0.0000E+00  0.0000E+00
      1.862  0.0000E+00  0.0000E+00  0.0000E+00
      1.962  0.0000E+00  0.0000E+00  0.0000E+00
      2.063  0.0000E+00  0.0000E+00  0.0000E+00
      2.164  0.0000E+00  0.0000E+00  0.0000E+00
      2.265  0.1414E-17  0.8185E-06  0.9937E-05
      2.365  0.1035E-02  0.1095E-02  0.4122E-02
      2.466  0.1403E-01  0.8950E-02  0.3390E-01
      2.567  0.4352E-02  0.3684E-01  0.2593E-01
      2.668  0.1087E-03  0.3327E-02  0.9470E-02
      2.769  0.4627E-02  0.3155E-01  0.3753E-01
      2.869  0.4695E-02  0.5809E-01  0.3512E-01
      2.970  0.9241E-02  0.9280E-01  0.3117E-01
      3.071  0.1942E-02  0.2308E-01  0.3503E-01
      3.172  0.3182E-02  0.3134E-01  0.2982E-01
      3.272  0.2494E-02  0.1290E-01  0.8870E-02
      3.373  0.2503E-07  0.5432E-03  0.1157E-02
      3.474  0.9157E-03  0.9380E-02  0.1556E-01
      3.575  0.2972E-03  0.7006E-02  0.9326E-02
      3.675  0.2546E-03  0.4141E-01  0.1476E-01
      3.776  0.4190E-12  0.1236E-01  0.4845E-02
      3.877  0.2072E-13  0.1116E-02  0.1497E-02
      3.978  0.3093E-04  0.7739E-02  0.4075E-02
      4.079  0.3103E-04  0.5901E-02  0.2741E-02
      4.179  0.0000E+00  0.0000E+00  0.0000E+00
      4.280  0.0000E+00  0.0000E+00  0.0000E+00
      4.381  0.0000E+00  0.0000E+00  0.0000E+00
      4.482  0.0000E+00  0.0000E+00  0.0000E+00
      4.582  0.0000E+00  0.0000E+00  0.0000E+00
      4.683  0.0000E+00  0.0000E+00  0.0000E+00
      4.784  0.0000E+00  0.0000E+00  0.0000E+00
      4.885  0.0000E+00  0.0000E+00  0.0000E+00
      4.986  0.4372E-13  0.7756E-14  0.3444E-13
      5.086  0.6687E-02  0.1186E-02  0.5268E-02
      5.187  0.0000E+00  0.0000E+00  0.0000E+00
      5.288  0.0000E+00  0.0000E+00  0.0000E+00
      5.389  0.0000E+00  0.0000E+00  0.0000E+00
      5.489  0.0000E+00  0.0000E+00  0.0000E+00
      5.590  0.1512E-10  0.5878E-11  0.3028E-10
      5.691  0.1589E-01  0.6763E-02  0.3108E-01
      5.792  0.0000E+00  0.0000E+00  0.0000E+00
      5.893  0.0000E+00  0.0000E+00  0.0000E+00
      5.993  0.2365E-06  0.1471E-06  0.8941E-06
      6.094  0.4850E-01  0.3423E-01  0.1967E+00
      6.195  0.1354E-01  0.7321E-02  0.9481E-01
      6.296  0.2111E-01  0.1762E-01  0.2450E+00
      6.396  0.2996E-01  0.2093E-01  0.2667E+00
      6.497  0.1991E-01  0.4612E-01  0.4730E+00
      6.598  0.1221E-01  0.1885E-01  0.3342E+00
      6.699  0.5452E-02  0.1842E-01  0.2557E+00
      6.799  0.1009E-01  0.8638E-02  0.2433E+00
      6.900  0.1776E-09  0.2759E-09  0.2869E-08
      7.001  0.2319E-02  0.3710E-02  0.6980E-01
      7.102  0.5914E-03  0.2393E-02  0.2145E-01
      7.203  0.0000E+00  0.0000E+00  0.0000E+00
      7.303  0.0000E+00  0.0000E+00  0.0000E+00
      7.404  0.0000E+00  0.0000E+00  0.0000E+00
      7.505  0.0000E+00  0.0000E+00  0.0000E+00
      7.606  0.0000E+00  0.0000E+00  0.0000E+00
      7.706  0.0000E+00  0.0000E+00  0.0000E+00
      7.807  0.0000E+00  0.0000E+00  0.0000E+00
      7.908  0.0000E+00  0.0000E+00  0.0000E+00
      8.009  0.0000E+00  0.0000E+00  0.0000E+00
      8.110  0.0000E+00  0.0000E+00  0.0000E+00
      8.210  0.0000E+00  0.0000E+00  0.0000E+00
      8.311  0.0000E+00  0.0000E+00  0.0000E+00
      8.412  0.0000E+00  0.0000E+00  0.0000E+00
      8.41189026    -21.82048572  301      0.67744074      1.00000000
    -21.820  0.0000E+00  0.0000E+00  0.0000E+00
    -21.720  0.0000E+00  0.0000E+00  0.0000E+00
    -21.619  0.0000E+00  0.0000E+00  0.0000E+00
    -21.518  0.0000E+00  0.0000E+00  0.0000E+00
    -21.417  0.0000E+00  0.0000E+00  0.0000E+00
    -21.317  0.0000E+00  0.0000E+00  0.0000E+00
    -21.216  0.0000E+00  0.0000E+00  0.0000E+00
    -21.115  0.0000E+00  0.0000E+00  0.0000E+00
    -21.014  0.0000E+00  0.0000E+00  0.0000E+00
    -20.914  0.0000E+00  0.0000E+00  0.0000E+00
    -20.813  0.0000E+00  0.0000E+00  0.0000E+00
    -20.712  0.0000E+00  0.0000E+00  0.0000E+00
    -20.611  0.0000E+00  0.0000E+00  0.0000E+00
    -20.510  0.0000E+00  0.0000E+00  0.0000E+00
    -20.410  0.1654E+02  0.1590E-01  0.5104E-02
    -20.309  0.0000E+00  0.0000E+00  0.0000E+00
    -20.208  0.0000E+00  0.0000E+00  0.0000E+00
    -20.107  0.0000E+00  0.0000E+00  0.0000E+00
    -20.007  0.0000E+00  0.0000E+00  0.0000E+00
    -19.906  0.0000E+00  0.0000E+00  0.0000E+00
    -19.805  0.0000E+00  0.0000E+00  0.0000E+00
    -19.704  0.0000E+00  0.0000E+00  0.0000E+00
    -19.603  0.0000E+00  0.0000E+00  0.0000E+00
    -19.503  0.0000E+00  0.0000E+00  0.0000E+00
    -19.402  0.0000E+00  0.0000E+00  0.0000E+00
    -19.301  0.0000E+00  0.0000E+00  0.0000E+00
    -19.200  0.0000E+00  0.0000E+00  0.0000E+00
    -19.100  0.0000E+00  0.0000E+00  0.0000E+00
    -18.999  0.0000E+00  0.0000E+00  0.0000E+00
    -18.898  0.0000E+00  0.0000E+00  0.0000E+00
    -18.797  0.0000E+00  0.0000E+00  0.0000E+00
    -18.696  0.0000E+00  0.0000E+00  0.0000E+00
    -18.596  0.0000E+00  0.0000E+00  0.0000E+00
    -18.495  0.0000E+00  0.0000E+00  0.0000E+00
    -18.394  0.0000E+00  0.0000E+00  0.0000E+00
    -18.293  0.0000E+00  0.0000E+00  0.0000E+00
    -18.193  0.0000E+00  0.0000E+00  0.0000E+00
    -18.092  0.0000E+00  0.0000E+00  0.0000E+00
    -17.991  0.0000E+00  0.0000E+00  0.0000E+00
    -17.890  0.0000E+00  0.0000E+00  0.0000E+00
    -17.790  0.0000E+00  0.0000E+00  0.0000E+00
    -17.689  0.0000E+00  0.0000E+00  0.0000E+00
    -17.588  0.0000E+00  0.0000E+00  0.0000E+00
    -17.487  0.0000E+00  0.0000E+00  0.0000E+00
    -17.386  0.0000E+00  0.0000E+00  0.0000E+00
    -17.286  0.9707E-03  0.3577E-03  0.5837E-04
    -17.185  0.5341E-03  0.2049E-03  0.3462E-04
    -17.084  0.0000E+00  0.0000E+00  0.0000E+00
    -16.983  0.0000E+00  0.0000E+00  0.0000E+00
    -16.883  0.0000E+00  0.0000E+00  0.0000E+00
    -16.782  0.0000E+00  0.0000E+00  0.0000E+00
    -16.681  0.0000E+00  0.0000E+00  0.0000E+00
    -16.580  0.0000E+00  0.0000E+00  0.0000E+00
    -16.479  0.0000E+00  0.0000E+00  0.0000E+00
    -16.379  0.0000E+00  0.0000E+00  0.0000E+00
    -16.278  0.0000E+00  0.0000E+00  0.0000E+00
    -16.177  0.0000E+00  0.0000E+00  0.0000E+00
    -16.076  0.0000E+00  0.0000E+00  0.0000E+00
    -15.976  0.0000E+00  0.0000E+00  0.0000E+00
    -15.875  0.0000E+00  0.0000E+00  0.0000E+00
    -15.774  0.0000E+00  0.0000E+00  0.0000E+00
    -15.673  0.0000E+00  0.0000E+00  0.0000E+00
    -15.572  0.0000E+00  0.0000E+00  0.0000E+00
    -15.472  0.0000E+00  0.0000E+00  0.0000E+00
    -15.371  0.0000E+00  0.0000E+00  0.0000E+00
    -15.270  0.0000E+00  0.0000E+00  0.0000E+00
    -15.169  0.0000E+00  0.0000E+00  0.0000E+00
    -15.069  0.0000E+00  0.0000E+00  0.0000E+00
    -14.968  0.0000E+00  0.0000E+00  0.0000E+00
    -14.867  0.4273E-20  0.9928E-18  0.7491E-19
    -14.766  0.2890E-02  0.7197E+00  0.5535E-01
    -14.665  0.1478E-03  0.5346E-01  0.4254E-02
    -14.565  0.0000E+00  0.0000E+00  0.0000E+00
    -14.464  0.7986E-14  0.5136E-04  0.9344E-05
    -14.363  0.2727E-02  0.2848E+00  0.5414E-01
    -14.262  0.6726E-04  0.9004E-01  0.1756E-01
    -14.162  0.0000E+00  0.0000E+00  0.0000E+00
    -14.061  0.3257E-05  0.3827E-06  0.9113E-07
    -13.960  0.1836E+00  0.2449E-01  0.5582E-02
    -13.859  0.7571E+00  0.1119E+00  0.2559E-01
    -13.759  0.0000E+00  0.0000E+00  0.0000E+00
    -13.658  0.0000E+00  0.0000E+00  0.0000E+00
    -13.557  0.0000E+00  0.0000E+00  0.0000E+00
    -13.456  0.0000E+00  0.0000E+00  0.0000E+00
    -13.355  0.0000E+00  0.0000E+00  0.0000E+00
    -13.255  0.0000E+00  0.0000E+00  0.0000E+00
    -13.154  0.0000E+00  0.0000E+00  0.0000E+00
    -13.053  0.0000E+00  0.0000E+00  0.0000E+00
    -12.952  0.0000E+00  0.0000E+00  0.0000E+00
    -12.852  0.0000E+00  0.0000E+00  0.0000E+00