       N       E                     dE             d eps       ncg     rms          rms(c)
DAV:   1     0.146185034443E+04    0.14619E+04   -0.11318E+05  2688   0.959E+02
DAV:   2    -0.106730837615E+04   -0.25292E+04   -0.24087E+04  3232   0.298E+02
DAV:   3    -0.145404865879E+04   -0.38674E+03   -0.38286E+03  3456   0.136E+02
DAV:   4    -0.146734539737E+04   -0.13297E+02   -0.13267E+02  3000   0.335E+01
DAV:   5    -0.146800165577E+04   -0.65626E+00   -0.65610E+00  3432   0.592E+00    0.223E+01
DAV:   6    -0.137685762610E+04    0.91144E+02   -0.33161E+01  3400   0.254E+01    0.151E+01
DAV:   7    -0.137624220809E+04    0.61542E+00   -0.12322E+01  3024   0.691E+00    0.530E+00
DAV:   8    -0.137650964995E+04   -0.26744E+00   -0.14668E+00  2840   0.322E+00    0.227E+00
DAV:   9    -0.137655745547E+04   -0.47806E-01   -0.18977E-01  2816   0.116E+00    0.702E-01
DAV:  10    -0.137657623136E+04   -0.18776E-01   -0.34609E-02  3064   0.447E-01    0.329E-01
DAV:  11    -0.137658053237E+04   -0.43010E-02   -0.68638E-03  2848   0.213E-01    0.663E-02
DAV:  12    -0.137658092799E+04   -0.39563E-03   -0.12262E-03  3304   0.775E-02    0.471E-02
DAV:  13    -0.137658111444E+04   -0.18645E-03   -0.95117E-05  2968   0.223E-02    0.286E-02
DAV:  14    -0.137658136828E+04   -0.25385E-03   -0.13302E-04  2768   0.253E-02    0.977E-03
DAV:  15    -0.137658135729E+04    0.10990E-04   -0.24132E-05  2920   0.113E-02    0.561E-03
DAV:  16    -0.137658135162E+04    0.56729E-05   -0.14678E-06  1624   0.300E-03    0.209E-03
DAV:  17    -0.137658133810E+04    0.13519E-04   -0.81510E-07  1536   0.234E-03    0.956E-04
DAV:  18    -0.137658132940E+04    0.86999E-05   -0.24355E-05  2312   0.678E-03    0.329E-03
DAV:  19    -0.137658133822E+04   -0.88195E-05   -0.21675E-05  2240   0.621E-03    0.586E-04
DAV:  20    -0.137658133820E+04    0.19463E-07   -0.13652E-06  1768   0.198E-03
   1 F= -.13765813E+04 E0= -.13765813E+04  d E =-.921842E-64
