 vasp.5.4.4.18Apr17-6-g9f103f2a35 (build Jun 22 2020 09:27:21) complex           
 executed on tx2_gcc-7.3_libsci-1 date 2021.09.22  08:51:59
 running on   64 total cores
 distrk:  each k-point on   64 cores,    1 groups
 distr:  one band on NCORES_PER_BAND=   8 cores,    8 groups


--------------------------------------------------------------------------------------------------------


 INCAR:
 POTCAR:    PAW_PBE Cs_sv 08Apr2002               
 POTCAR:    PAW_PBE Pb_d 06Sep2000                
 POTCAR:    PAW_PBE Br 06Sep2000                  
 POTCAR:    PAW_PBE Cs_sv 08Apr2002               
   SHA256 =  c1463496f0f6037ed62c6012a8013a89ee9ad6ffb38599dcd6c079e7ed31779b Cs
   COPYR  = (c) Copyright 08Apr2002 Georg Kresse                                
   COPYR  = This file is part of the software VASP. Any use, copying, and all ot
   COPYR  = If you do not have a valid VASP license, you may not use, copy or di
   VRHFIN =Cs: 5s5p6s                                                           
   LEXCH  = PE                                                                  
   EATOM  =   555.6835 eV,   40.8416 Ry                                         
                                                                                
   TITEL  = PAW_PBE Cs_sv 08Apr2002                                             
   LULTRA =        F    use ultrasoft PP ?                                      
   IUNSCR =        1    unscreen: 0-lin 1-nonlin 2-no                           
   RPACOR =    2.200    partial core radius                                     
   POMASS =  132.900; ZVAL   =    9.000    mass and valenz                      
   RCORE  =    2.500    outmost cutoff radius                                   
   RWIGS  =    2.500; RWIGS  =    1.323    wigner-seitz radius (au A)           
   ENMAX  =  220.318; ENMIN  =  165.238 eV                                      
   RCLOC  =    2.207    cutoff for local pot                                    
   LCOR   =        T    correct aug charges                                     
   LPAW   =        T    paw PP                                                  
   EAUG   =  407.933                                                            
   DEXC   =    0.000                                                            
   RMAX   =    2.554    core radius for proj-oper                               
   RAUG   =    1.300    factor for augmentation sphere                          
   RDEP   =    2.590    radius for radial grids                                 
   RDEPT  =    2.117    core radius for aug-charge                              
                                                                                
   Atomic configuration                                                         
   13 entries                                                                   
     n  l   j            E        occ.                                          
     1  0  0.50    -35790.1377   2.0000                                         
     2  0  0.50     -5613.6201   2.0000                                         
     2  1  1.50     -5035.0101   6.0000                                         
     3  0  0.50     -1167.0767   2.0000                                         
     3  1  1.50      -980.9754   6.0000                                         
     3  2  2.50      -708.0703  10.0000                                         
     4  0  0.50      -220.2386   2.0000                                         
     4  1  1.50      -160.7596   6.0000                                         
     4  2  2.50       -74.2354  10.0000                                         
     5  0  0.50       -26.7287   2.0000                                         
     6  0  0.50        -2.0862   1.0000                                         
     5  1  1.50       -13.5159   6.0000                                         
     5  2  2.50        -0.4136   0.0000                                         
   Description                                                                  
     l       E           TYP  RCUT    TYP  RCUT                                 
     0    -26.7287425     23  1.900                                             
     0     -2.0862306     23  1.900                                             
     1    -13.5158719     23  2.500                                             
     1     -2.7211652     23  2.500                                             
     2     -0.4136171     23  2.500                                             
  local pseudopotential read in
  partial core-charges read in
  partial kinetic energy density read in
  atomic valenz-charges read in
  non local Contribution for L=           0  read in
    real space projection operators read in
  non local Contribution for L=           0  read in
    real space projection operators read in
  non local Contribution for L=           1  read in
    real space projection operators read in
  non local Contribution for L=           1  read in
    real space projection operators read in
  non local Contribution for L=           2  read in
    real space projection operators read in
    PAW grid and wavefunctions read in

   number of l-projection  operators is LMAX  =           5
   number of lm-projection operators is LMMAX =          13

 POTCAR:    PAW_PBE Pb_d 06Sep2000                
   SHA256 =  fb885b08f0fba73a15f6a6b0e39bd200c13ec96ef97cf3ecd8e63bade5137abd Pb
   COPYR  = (c) Copyright 06Sep2000 Georg Kresse                                
   COPYR  = This file is part of the software VASP. Any use, copying, and all ot
   COPYR  = If you do not have a valid VASP license, you may not use, copy or di
   VRHFIN =Pb:                                                                  
   LEXCH  = PE                                                                  
   EATOM  =  1661.6185 eV,  122.1255 Ry                                         
                                                                                
   TITEL  = PAW_PBE Pb_d 06Sep2000                                              
   LULTRA =        F    use ultrasoft PP ?                                      
   IUNSCR =        1    unscreen: 0-lin 1-nonlin 2-no                           
   RPACOR =    2.200    partial core radius                                     
   POMASS =  207.200; ZVAL   =   14.000    mass and valenz                      
   RCORE  =    2.500    outmost cutoff radius                                   
   RWIGS  =    3.260; RWIGS  =    1.725    wigner-seitz radius (au A)           
   ENMAX  =  237.835; ENMIN  =  178.376 eV                                      
   ICORE  =        3    local potential                                         
   LCOR   =        T    correct aug charges                                     
   LPAW   =        T    paw PP                                                  
   EAUG   =  391.914                                                            
   DEXC   =    0.000                                                            
   RMAX   =    2.565    core radius for proj-oper                               
   RAUG   =    1.300    factor for augmentation sphere                          
   RDEP   =    2.643    radius for radial grids                                 
   RDEPT  =    2.092    core radius for aug-charge                              
                                                                                
   Atomic configuration                                                         
   16 entries                                                                   
     n  l   j            E        occ.                                          
     1  0  0.50    -88091.8466   2.0000                                         
     2  0  0.50    -15753.4197   2.0000                                         
     2  1  1.50    -13508.1797   6.0000                                         
     3  0  0.50     -3781.7194   2.0000                                         
     3  1  1.50     -3138.2529   6.0000                                         
     3  2  2.50     -2483.2977  10.0000                                         
     4  0  0.50      -856.2895   2.0000                                         
     4  1  1.50      -645.4942   6.0000                                         
     4  2  2.50      -401.8768  10.0000                                         
     4  3  3.50      -132.9059  14.0000                                         
     5  0  0.50      -144.0950   2.0000                                         
     5  1  1.50       -85.7879   6.0000                                         
     5  2  2.50       -21.1769  10.0000                                         
     6  0  0.50       -12.0372   2.0000                                         
     6  1  1.50        -3.4971   2.0000                                         
     5  3  2.50        -2.7212   0.0000                                         
   Description                                                                  
     l       E           TYP  RCUT    TYP  RCUT                                 
     2    -21.1768523     23  2.500                                             
     2      1.3605826     23  2.500                                             
     0    -12.0371562     23  2.500                                             
     0     13.6058260     23  2.500                                             
     1     -3.4971339     23  2.500                                             
     1     13.6058260     23  2.500                                             
     3     -1.3605826      7  2.500                                             
  local pseudopotential read in
  partial core-charges read in
  partial kinetic energy density read in
  atomic valenz-charges read in
  non local Contribution for L=           2  read in
    real space projection operators read in
  non local Contribution for L=           2  read in
    real space projection operators read in
  non local Contribution for L=           0  read in
    real space projection operators read in
  non local Contribution for L=           0  read in
    real space projection operators read in
  non local Contribution for L=           1  read in
    real space projection operators read in
  non local Contribution for L=           1  read in
    real space projection operators read in
    PAW grid and wavefunctions read in

   number of l-projection  operators is LMAX  =           6
   number of lm-projection operators is LMMAX =          18

 POTCAR:    PAW_PBE Br 06Sep2000                  
   SHA256 =  96a73d2954943bbee26f4990d676cc6c3bf44b8dd2c75cd4b3b825d8403f0103 Br
   COPYR  = (c) Copyright 06Sep2000 Georg Kresse                                
   COPYR  = This file is part of the software VASP. Any use, copying, and all ot
   COPYR  = If you do not have a valid VASP license, you may not use, copy or di
   VRHFIN =Br: s2p5                                                             
   LEXCH  = PE                                                                  
   EATOM  =   368.4488 eV,   27.0802 Ry                                         
                                                                                
   TITEL  = PAW_PBE Br 06Sep2000                                                
   LULTRA =        F    use ultrasoft PP ?                                      
   IUNSCR =        1    unscreen: 0-lin 1-nonlin 2-no                           
   RPACOR =    1.900    partial core radius                                     
   POMASS =   79.904; ZVAL   =    7.000    mass and valenz                      
   RCORE  =    2.100    outmost cutoff radius                                   
   RWIGS  =    2.200; RWIGS  =    1.164    wigner-seitz radius (au A)           
   ENMAX  =  216.285; ENMIN  =  162.214 eV                                      
   ICORE  =        3    local potential                                         
   LCOR   =        T    correct aug charges                                     
   LPAW   =        T    paw PP                                                  
   EAUG   =  503.852                                                            
   DEXC   =    0.000                                                            
   RMAX   =    2.139    core radius for proj-oper                               
   RAUG   =    1.300    factor for augmentation sphere                          
   RDEP   =    2.186    radius for radial grids                                 
   RDEPT  =    1.890    core radius for aug-charge                              
                                                                                
   Atomic configuration                                                         
   10 entries                                                                   
     n  l   j            E        occ.                                          
     1  0  0.50    -13316.2796   2.0000                                         
     2  0  0.50     -1732.8239   2.0000                                         
     2  1  1.50     -1528.2193   6.0000                                         
     3  0  0.50      -238.0460   2.0000                                         
     3  1  1.50      -173.4609   6.0000                                         
     3  2  2.50       -66.7132  10.0000                                         
     4  0  0.50       -20.1334   2.0000                                         
     4  1  0.50        -7.8591   5.0000                                         
     4  2  2.50        -8.1635   0.0000                                         
     4  3  2.50        -8.1635   0.0000                                         
   Description                                                                  
     l       E           TYP  RCUT    TYP  RCUT                                 
     0    -20.1333652     23  2.100                                             
     0    -21.4939478     23  2.100                                             
     1     -7.8591052     23  2.100                                             
     1     -3.1608434     23  2.100                                             
     2     -8.1634956     23  2.100                                             
     3     -1.3605826      7  2.100                                             
  local pseudopotential read in
  partial core-charges read in
  partial kinetic energy density read in
  atomic valenz-charges read in
  non local Contribution for L=           0  read in
    real space projection operators read in
  non local Contribution for L=           0  read in
    real space projection operators read in
  non local Contribution for L=           1  read in
    real space projection operators read in
  non local Contribution for L=           1  read in
    real space projection operators read in
  non local Contribution for L=           2  read in
    real space projection operators read in
    PAW grid and wavefunctions read in

   number of l-projection  operators is LMAX  =           5
   number of lm-projection operators is LMMAX =          13

 Optimization of the real space projectors (new method)

 maximal supplied QI-value         = 15.12
 optimisation between [QCUT,QGAM] = [  8.77, 17.69] = [ 21.53, 87.61] Ry 
 Optimized for a Real-space Cutoff    1.85 Angstroem

   l    n(q)    QCUT    max X(q) W(low)/X(q) W(high)/X(q)  e(spline) 
   0     10     8.768    25.322    0.81E-04    0.51E-04    0.48E-06
   0     10     8.768    99.187    0.78E-04    0.50E-04    0.47E-06
   1      9     8.768    11.761    0.21E-03    0.20E-03    0.37E-06
   1      9     8.768     8.275    0.24E-03    0.22E-03    0.41E-06
   2      9     8.768     3.829    0.23E-04    0.15E-03    0.18E-06
 Optimization of the real space projectors (new method)

 maximal supplied QI-value         = 15.12
 optimisation between [QCUT,QGAM] = [  8.77, 17.69] = [ 21.53, 87.61] Ry 
 Optimized for a Real-space Cutoff    1.59 Angstroem

   l    n(q)    QCUT    max X(q) W(low)/X(q) W(high)/X(q)  e(spline) 
   2      7     8.768     3.846    0.48E-04    0.11E-03    0.11E-06
   2      7     8.768     8.593    0.20E-03    0.22E-04    0.24E-06
   0      8     8.768    20.082    0.68E-04    0.88E-04    0.41E-07
   0      8     8.768     8.597    0.89E-04    0.13E-03    0.59E-07
   1      8     8.768    33.223    0.15E-03    0.53E-04    0.87E-07
   1      8     8.768    15.899    0.14E-03    0.44E-04    0.78E-07
 Optimization of the real space projectors (new method)

 maximal supplied QI-value         = 17.95
 optimisation between [QCUT,QGAM] = [  8.80, 17.59] = [ 21.67, 86.68] Ry 
 Optimized for a Real-space Cutoff    1.59 Angstroem

   l    n(q)    QCUT    max X(q) W(low)/X(q) W(high)/X(q)  e(spline) 
   0      8     8.797   175.082    0.82E-04    0.14E-03    0.89E-07
   0      8     8.797   174.004    0.79E-04    0.14E-03    0.86E-07
   1      8     8.797    54.315    0.16E-03    0.14E-04    0.30E-06
   1      8     8.797    42.441    0.16E-03    0.14E-04    0.30E-06
   2      7     8.797     3.596    0.92E-04    0.15E-03    0.85E-07
  PAW_PBE Cs_sv 08Apr2002               :
 energy of atom  1       EATOM= -555.6835
 kinetic energy error for atom=    0.0069 (will be added to EATOM!!)
  PAW_PBE Pb_d 06Sep2000                :
 energy of atom  2       EATOM=-1661.6185
 kinetic energy error for atom=    0.0498 (will be added to EATOM!!)
  PAW_PBE Br 06Sep2000                  :
 energy of atom  3       EATOM= -368.4488
 kinetic energy error for atom=    0.0072 (will be added to EATOM!!)


 POSCAR: Cs8 Pb8 Br24                            
  positions in direct lattice
  No initial velocities read in

 METAGGA = SCAN     LMAXTAU =  6    LMIXTAU =  F

 exchange correlation table for  LEXCH =        8
   RHO(1)=    0.500       N(1)  =     2000
   RHO(2)=  100.500       N(2)  =     4000

 VTST: version 3.2, (02/03/18)

 CHAIN: initializing optimizer
 
 OPT: Using VASP Conjugate-Gradient optimizer
 CHAIN: Read ICHAIN            0

 POSCAR: Cs8 Pb8 Br24                            
  positions in direct lattice
  No initial velocities read in



--------------------------------------------------------------------------------------------------------


 ion  position               nearest neighbor table
   1  0.250  0.250  0.250-  29 2.49  35 2.57  36 2.57
   2  0.250  0.250  0.750-  28 2.49  33 2.57  34 2.57
   3  0.250  0.750  0.250-  25 2.49  24 2.57  23 2.57
   4  0.250  0.750  0.750-  32 2.49  20 2.57  19 2.57
   5  0.750  0.250  0.250-  31 2.49  18 2.57  17 2.57
   6  0.750  0.250  0.750-  26 2.49  22 2.57  21 2.57
   7  0.750  0.750  0.250-  27 2.49  37 2.57  38 2.57
   8  0.750  0.750  0.750-  30 2.49  39 2.57  40 2.57
   9  0.000  0.000  0.000-  17 3.33  19 3.33  33 3.33  37 3.33  25 3.37  26 3.37
  10  0.000  0.000  0.500-  18 3.33  20 3.33  34 3.33  38 3.33  25 3.37  26 3.37
  11  0.000  0.500  0.000-  17 3.33  19 3.33  35 3.33  39 3.33  27 3.37  28 3.37
  12  0.000  0.500  0.500-  18 3.33  20 3.33  36 3.33  40 3.33  27 3.37  28 3.37
  13  0.500  0.000  0.000-  21 3.33  23 3.33  33 3.33  37 3.33  29 3.37  30 3.37
  14  0.500  0.000  0.500-  22 3.33  24 3.33  34 3.33  38 3.33  29 3.37  30 3.37
  15  0.500  0.500  0.000-  21 3.33  23 3.33  35 3.33  39 3.33  31 3.37  32 3.37
  16  0.500  0.500  0.500-  22 3.33  24 3.33  36 3.33  40 3.33  31 3.37  32 3.37
  17  0.910  0.250  0.100-   5 2.57   9 3.33  11 3.33
  18  0.910  0.250  0.400-   5 2.57  10 3.33  12 3.33
  19  0.090  0.750  0.900-   4 2.57   9 3.33  11 3.33
  20  0.090  0.750  0.600-   4 2.57  10 3.33  12 3.33
  21  0.590  0.250  0.900-   6 2.57  13 3.33  15 3.33
  22  0.590  0.250  0.600-   6 2.57  14 3.33  16 3.33
  23  0.410  0.750  0.100-   3 2.57  13 3.33  15 3.33
  24  0.410  0.750  0.400-   3 2.57  14 3.33  16 3.33
  25  0.100  0.900  0.250-   3 2.49   9 3.37  10 3.37
  26  0.900  0.100  0.750-   6 2.49   9 3.37  10 3.37
  27  0.900  0.600  0.250-   7 2.49  11 3.37  12 3.37
  28  0.100  0.400  0.750-   2 2.49  11 3.37  12 3.37
  29  0.400  0.100  0.250-   1 2.49  13 3.37  14 3.37
  30  0.600  0.900  0.750-   8 2.49  13 3.37  14 3.37
  31  0.600  0.400  0.250-   5 2.49  15 3.37  16 3.37
  32  0.400  0.600  0.750-   4 2.49  15 3.37  16 3.37
  33  0.250  0.090  0.900-   2 2.57   9 3.33  13 3.33
  34  0.250  0.090  0.600-   2 2.57  10 3.33  14 3.33
  35  0.250  0.410  0.100-   1 2.57  11 3.33  15 3.33
  36  0.250  0.410  0.400-   1 2.57  12 3.33  16 3.33
  37  0.750  0.910  0.100-   7 2.57   9 3.33  13 3.33
  38  0.750  0.910  0.400-   7 2.57  10 3.33  14 3.33
  39  0.750  0.590  0.900-   8 2.57  11 3.33  15 3.33
  40  0.750  0.590  0.600-   8 2.57  12 3.33  16 3.33

  LATTYP: Found a simple cubic cell.
 ALAT       =    11.7353520000
  
  Lattice vectors:
  
 A1 = (  11.7353520000,   0.0000000000,   0.0000000000)
 A2 = (   0.0000000000,  11.7353520000,   0.0000000000)
 A3 = (   0.0000000000,   0.0000000000,  11.7353520000)


Analysis of symmetry for initial positions (statically):
=====================================================================
 Subroutine PRICEL returns following result:
 
  LATTYP: Found a simple tetragonal cell.
 ALAT       =     8.2981469788
 C/A-ratio  =     1.4142135624
  
  Lattice vectors:
  
 A1 = (   5.8676760000,  -5.8676760000,   0.0000000000)
 A2 = (  -5.8676760000,  -5.8676760000,   0.0000000000)
 A3 = (   0.0000000000,   0.0000000000, -11.7353520000)
 
   2 primitive cells build up your supercell.
 

 Routine SETGRP: Setting up the symmetry group for a 
 simple cubic supercell.


 Subroutine GETGRP returns: Found  8 space group operations
 (whereof  2 operations were pure point group operations)
 out of a pool of 48 trial point group operations.


The static configuration has the point symmetry S_2 .
 The point group associated with its full space group is D_2h.


Analysis of symmetry for dynamics (positions and initial velocities):
=====================================================================
 Subroutine PRICEL returns following result:
 
  LATTYP: Found a simple tetragonal cell.
 ALAT       =     8.2981469788
 C/A-ratio  =     1.4142135624
  
  Lattice vectors:
  
 A1 = (   5.8676760000,  -5.8676760000,   0.0000000000)
 A2 = (  -5.8676760000,  -5.8676760000,   0.0000000000)
 A3 = (   0.0000000000,   0.0000000000, -11.7353520000)
 
   2 primitive cells build up your supercell.
 

 Routine SETGRP: Setting up the symmetry group for a 
 simple cubic supercell.


 Subroutine GETGRP returns: Found  8 space group operations
 (whereof  2 operations were pure point group operations)
 out of a pool of 48 trial point group operations.


The dynamic configuration has the point symmetry S_2 .
 The point group associated with its full space group is D_2h.


 Subroutine INISYM returns: Found  8 space group operations
 (whereof  2 operations are pure point group operations),
 and found     2 'primitive' translations



 KPOINTS: 1x1x1                                   

Automatic generation of k-mesh.
Space group operators:
 irot       det(A)        alpha          n_x          n_y          n_z        tau_x        tau_y        tau_z
    1     1.000000     0.000000     1.000000     0.000000     0.000000    -0.000000    -0.000000    -0.000000
    2    -1.000000     0.000000     1.000000     0.000000     0.000000    -0.000000    -0.000000    -0.000000
    3     1.000000   180.000000     0.000000     0.000000     1.000000    -0.000000    -0.000000    -0.500000
    4    -1.000000   180.000000     0.000000     0.000000     1.000000    -0.000000    -0.000000    -0.500000
    5     1.000000   180.000000     0.707107     0.707107     0.000000     0.000000    -0.500000    -0.500000
    6    -1.000000   180.000000     0.707107     0.707107     0.000000     0.000000    -0.500000    -0.500000
    7     1.000000   180.000000     0.707107    -0.707107     0.000000     0.000000    -0.500000    -0.000000
    8    -1.000000   180.000000     0.707107    -0.707107     0.000000     0.000000    -0.500000    -0.000000
 
 Subroutine IBZKPT returns following result:
 ===========================================
 
 Found      6 irreducible k-points:
 
 Following reciprocal coordinates:
            Coordinates               Weight
  0.000000  0.000000  0.000000      1.000000
  0.500000  0.000000  0.000000      2.000000
  0.500000  0.500000  0.000000      1.000000
  0.000000  0.000000  0.500000      1.000000
  0.500000  0.000000  0.500000      2.000000
  0.500000  0.500000  0.500000      1.000000
 
 Following cartesian coordinates:
            Coordinates               Weight
  0.000000  0.000000  0.000000      1.000000
  0.042606  0.000000  0.000000      2.000000
  0.042606  0.042606  0.000000      1.000000
  0.000000  0.000000  0.042606      1.000000
  0.042606  0.000000  0.042606      2.000000
  0.042606  0.042606  0.042606      1.000000
 


--------------------------------------------------------------------------------------------------------




 Dimension of arrays:
   k-points           NKPTS =      6   k-points in BZ     NKDIM =      6   number of bands    NBANDS=    216
   number of dos      NEDOS =    301   number of ions     NIONS =     40
   non local maximal  LDIM  =      6   non local SUM 2l+1 LMDIM =     18
   total plane-waves  NPLWV = 343000
   max r-space proj   IRMAX =   5660   max aug-charges    IRDMAX=  90331
   dimension x,y,z NGX =    70 NGY =   70 NGZ =   70
   dimension x,y,z NGXF=   140 NGYF=  140 NGZF=  140
   support grid    NGXF=   280 NGYF=  280 NGZF=  280
   ions per type =               8   8  24
   NGX,Y,Z   is equivalent  to a cutoff of   9.92,  9.92,  9.92 a.u.
   NGXF,Y,Z  is equivalent  to a cutoff of  19.83, 19.83, 19.83 a.u.

 SYSTEM =  CsPbBr3 cubic bulk                      
 POSCAR =  Cs8 Pb8 Br24                            

 Startparameter for this run:
   NWRITE =      2    write-flag & timer
   PREC   = accura    normal or accurate (medium, high low for compatibility)
   ISTART =      0    job   : 0-new  1-cont  2-samecut
   ICHARG =      2    charge: 1-file 2-atom 10-const
   ISPIN  =      1    spin polarized calculation?
   LNONCOLLINEAR =      F non collinear calculations
   LSORBIT =      F    spin-orbit coupling
   INIWAV =      1    electr: 0-lowe 1-rand  2-diag
   LASPH  =      T    aspherical Exc in radial PAW
   METAGGA=      F    non-selfconsistent MetaGGA calc.

 Electronic Relaxation 1
   ENCUT  =  300.0 eV  22.05 Ry    4.70 a.u.  16.57 16.57 16.57*2*pi/ulx,y,z
   ENINI  =  300.0     initial cutoff
   ENAUG  =  503.9 eV  augmentation charge cutoff
   NELM   =    200;   NELMIN=  2; NELMDL= -5     # of ELM steps 
   EDIFF  = 0.1E-05   stopping-criterion for ELM
   LREAL  =      T    real-space projection
   NLSPLINE    = F    spline interpolate recip. space projectors
   LCOMPAT=      F    compatible to vasp.4.4
   GGA_COMPAT  = T    GGA compatible to vasp.4.4-vasp.4.6
   LMAXPAW     = -100 max onsite density
   LMAXMIX     =    2 max onsite mixed and CHGCAR
   VOSKOWN=      0    Vosko Wilk Nusair interpolation
   ROPT   =   -0.00025  -0.00025  -0.00025
 Ionic relaxation
   EDIFFG = -.1E-01   stopping-criterion for IOM
   NSW    =      0    number of steps for IOM
   NBLOCK =      1;   KBLOCK =      1    inner block; outer block 
   IBRION =     -1    ionic relax: 0-MD 1-quasi-New 2-CG
   NFREE  =      1    steps in history (QN), initial steepest desc. (CG)
   ISIF   =      3    stress and relaxation
   IWAVPR =     10    prediction:  0-non 1-charg 2-wave 3-comb
   ISYM   =      2    0-nonsym 1-usesym 2-fastsym
   LCORR  =      T    Harris-Foulkes like correction to forces

   POTIM  = 0.5000    time-step for ionic-motion
   TEIN   =    0.0    initial temperature
   TEBEG  =    0.0;   TEEND  =   0.0 temperature during run
   SMASS  =  -3.00    Nose mass-parameter (am)
   estimated Nose-frequenzy (Omega)   =  0.10E-29 period in steps =****** mass=  -0.315E-26a.u.
   SCALEE = 1.0000    scale energy and forces
   NPACO  =    256;   APACO  = 16.0  distance and # of slots for P.C.
   PSTRESS=    0.0 pullay stress

  Mass of Ions in am
   POMASS = 132.90207.20 79.90
  Ionic Valenz
   ZVAL   =   9.00 14.00  7.00
  Atomic Wigner-Seitz radii
   RWIGS  =  -1.00 -1.00 -1.00
  virtual crystal weights 
   VCA    =   1.00  1.00  1.00
   NELECT =     352.0000    total number of electrons
   NUPDOWN=      -1.0000    fix difference up-down

 DOS related values:
   EMIN   =  10.00;   EMAX   =-10.00  energy-range for DOS
   EFERMI =   0.00
   ISMEAR =     0;   SIGMA  =   0.01  broadening in eV -4-tet -1-fermi 0-gaus

 Electronic relaxation 2 (details)
   IALGO  =     38    algorithm
   LDIAG  =      T    sub-space diagonalisation (order eigenvalues)
   LSUBROT=      F    optimize rotation matrix (better conditioning)
   TURBO    =      0    0=normal 1=particle mesh
   IRESTART =      0    0=no restart 2=restart with 2 vectors
   NREBOOT  =      0    no. of reboots
   NMIN     =      0    reboot dimension
   EREF     =   0.00    reference energy to select bands
   IMIX   =      4    mixing-type and parameters
     AMIX     =   0.40;   BMIX     =  1.00
     AMIX_MAG =   1.60;   BMIX_MAG =  1.00
     AMIN     =   0.10
     WC   =   100.;   INIMIX=   1;  MIXPRE=   1;  MAXMIX= -45

 Intra band minimization:
   WEIMIN = 0.0000     energy-eigenvalue tresh-hold
   EBREAK =  0.12E-08  absolut break condition
   DEPER  =   0.30     relativ break condition  

   TIME   =   0.40     timestep for ELM

  volume/ion in A,a.u.               =      40.40       272.66
  Fermi-wavevector in a.u.,A,eV,Ry     =   0.984977  1.861337 13.200107  0.970180
  Thomas-Fermi vector in A             =   2.116250

 Write flags
   LWAVE        =      F    write WAVECAR
   LDOWNSAMPLE  =      F    k-point downsampling of WAVECAR
   LCHARG       =      T    write CHGCAR
   LVTOT        =      F    write LOCPOT, total local potential
   LVHAR        =      T    write LOCPOT, Hartree potential only
   LELF         =      F    write electronic localiz. function (ELF)
   LORBIT       =     10    0 simple, 1 ext, 2 COOP (PROOUT), +10 PAW based schemes


 Dipole corrections
   LMONO  =      F    monopole corrections only (constant potential shift)
   LDIPOL =      F    correct potential (dipole corrections)
   IDIPOL =      0    1-x, 2-y, 3-z, 4-all directions 
   EPSILON=  1.0000000 bulk dielectric constant

 Exchange correlation treatment:
   GGA     =    --    GGA type
   LEXCH   =     8    internal setting for exchange type
   VOSKOWN=      0    Vosko Wilk Nusair interpolation
   LHFCALC =     F    Hartree Fock is set to
   LHFONE  =     F    Hartree Fock one center treatment
   AEXX    =    0.0000 exact exchange contribution

 Linear response parameters
   LEPSILON=     F    determine dielectric tensor
   LRPA    =     F    only Hartree local field effects (RPA)
   LNABLA  =     F    use nabla operator in PAW spheres
   LVEL    =     F    velocity operator in full k-point grid
   LINTERFAST=   F  fast interpolation
   KINTER  =     0    interpolate to denser k-point grid
   CSHIFT  =0.1000    complex shift for real part using Kramers Kronig
   OMEGAMAX=  -1.0    maximum frequency
   DEG_THRESHOLD= 0.2000000E-02 threshold for treating states as degnerate
   RTIME   =   -0.100 relaxation time in fs
  (WPLASMAI=    0.000 imaginary part of plasma frequency in eV, 0.658/RTIME)
   DFIELD  = 0.0000000 0.0000000 0.0000000 field for delta impulse in time

 Orbital magnetization related:
   ORBITALMAG=     F  switch on orbital magnetization
   LCHIMAG   =     F  perturbation theory with respect to B field
   DQ        =  0.001000  dq finite difference perturbation B field
   LLRAUG    =     F  two centre corrections for induced B field



--------------------------------------------------------------------------------------------------------


 Static calculation
 charge density and potential will be updated during run
 non-spin polarized calculation
 Variant of blocked Davidson
 Davidson routine will perform the subspace rotation
 perform sub-space diagonalisation
    after iterative eigenvector-optimisation
 modified Broyden-mixing scheme, WC =      100.0
 initial mixing is a Kerker type mixing with AMIX =  0.4000 and BMIX =      1.0000
 Hartree-type preconditioning will be used
 using additional bands           40
 real space projection scheme for non local part
 use partial core corrections
 calculate Harris-corrections to forces   (improved forces if not selfconsistent)
 use gradient corrections 
 use of overlap-Matrix (Vanderbilt PP)
 Gauss-broadening in eV      SIGMA  =   0.01


--------------------------------------------------------------------------------------------------------


  energy-cutoff  :      300.00
  volume of cell :     1616.17
      direct lattice vectors                 reciprocal lattice vectors
    11.735352000  0.000000000  0.000000000     0.085212612  0.000000000  0.000000000
     0.000000000 11.735352000  0.000000000     0.000000000  0.085212612  0.000000000
     0.000000000  0.000000000 11.735352000     0.000000000  0.000000000  0.085212612

  length of vectors
    11.735352000 11.735352000 11.735352000     0.085212612  0.085212612  0.085212612



 k-points in units of 2pi/SCALE and weight: 1x1x1                                   
   0.00000000  0.00000000  0.00000000       0.125
   0.04260631  0.00000000  0.00000000       0.250
   0.04260631  0.04260631  0.00000000       0.125
   0.00000000  0.00000000  0.04260631       0.125
   0.04260631  0.00000000  0.04260631       0.250
   0.04260631  0.04260631  0.04260631       0.125

 k-points in reciprocal lattice and weights: 1x1x1                                   
   0.00000000  0.00000000  0.00000000       0.125
   0.50000000  0.00000000  0.00000000       0.250
   0.50000000  0.50000000  0.00000000       0.125
   0.00000000  0.00000000  0.50000000       0.125
   0.50000000  0.00000000  0.50000000       0.250
   0.50000000  0.50000000  0.50000000       0.125

 position of ions in fractional coordinates (direct lattice) 
   0.25000000  0.25000000  0.25000000
   0.25000000  0.25000000  0.75000000
   0.25000000  0.75000000  0.25000000
   0.25000000  0.75000000  0.75000000
   0.75000000  0.25000000  0.25000000
   0.75000000  0.25000000  0.75000000
   0.75000000  0.75000000  0.25000000
   0.75000000  0.75000000  0.75000000
   0.00000000  0.00000000  0.00000000
   0.00000000  0.00000000  0.50000000
   0.00000000  0.50000000  0.00000000
   0.00000000  0.50000000  0.50000000
   0.50000000  0.00000000  0.00000000
   0.50000000  0.00000000  0.50000000
   0.50000000  0.50000000  0.00000000
   0.50000000  0.50000000  0.50000000
   0.91000000  0.25000000  0.10000000
   0.91000000  0.25000000  0.40000000
   0.09000000  0.75000000  0.90000000
   0.09000000  0.75000000  0.60000000
   0.59000000  0.25000000  0.90000000
   0.59000000  0.25000000  0.60000000
   0.41000000  0.75000000  0.10000000
   0.41000000  0.75000000  0.40000000
   0.10000000  0.90000000  0.25000000
   0.90000000  0.10000000  0.75000000
   0.90000000  0.60000000  0.25000000
   0.10000000  0.40000000  0.75000000
   0.40000000  0.10000000  0.25000000
   0.60000000  0.90000000  0.75000000
   0.60000000  0.40000000  0.25000000
   0.40000000  0.60000000  0.75000000
   0.25000000  0.09000000  0.90000000
   0.25000000  0.09000000  0.60000000
   0.25000000  0.41000000  0.10000000
   0.25000000  0.41000000  0.40000000
   0.75000000  0.91000000  0.10000000
   0.75000000  0.91000000  0.40000000
   0.75000000  0.59000000  0.90000000
   0.75000000  0.59000000  0.60000000

 position of ions in cartesian coordinates  (Angst):
   2.93383800  2.93383800  2.93383800
   2.93383800  2.93383800  8.80151400
   2.93383800  8.80151400  2.93383800
   2.93383800  8.80151400  8.80151400
   8.80151400  2.93383800  2.93383800
   8.80151400  2.93383800  8.80151400
   8.80151400  8.80151400  2.93383800
   8.80151400  8.80151400  8.80151400
   0.00000000  0.00000000  0.00000000
   0.00000000  0.00000000  5.86767600
   0.00000000  5.86767600  0.00000000
   0.00000000  5.86767600  5.86767600
   5.86767600  0.00000000  0.00000000
   5.86767600  0.00000000  5.86767600
   5.86767600  5.86767600  0.00000000
   5.86767600  5.86767600  5.86767600
  10.67917032  2.93383800  1.17353520
  10.67917032  2.93383800  4.69414080
   1.05618168  8.80151400 10.56181680
   1.05618168  8.80151400  7.04121120
   6.92385768  2.93383800 10.56181680
   6.92385768  2.93383800  7.04121120
   4.81149432  8.80151400  1.17353520
   4.81149432  8.80151400  4.69414080
   1.17353520 10.56181680  2.93383800
  10.56181680  1.17353520  8.80151400
  10.56181680  7.04121120  2.93383800
   1.17353520  4.69414080  8.80151400
   4.69414080  1.17353520  2.93383800
   7.04121120 10.56181680  8.80151400
   7.04121120  4.69414080  2.93383800
   4.69414080  7.04121120  8.80151400
   2.93383800  1.05618168 10.56181680
   2.93383800  1.05618168  7.04121120
   2.93383800  4.81149432  1.17353520
   2.93383800  4.81149432  4.69414080
   8.80151400 10.67917032  1.17353520
   8.80151400 10.67917032  4.69414080
   8.80151400  6.92385768 10.56181680
   8.80151400  6.92385768  7.04121120



--------------------------------------------------------------------------------------------------------


 k-point  1 :   0.0000 0.0000 0.0000  plane waves:   19093
 k-point  2 :   0.5000 0.0000 0.0000  plane waves:   19066
 k-point  3 :   0.5000 0.5000 0.0000  plane waves:   19072
 k-point  4 :   0.0000 0.0000 0.5000  plane waves:   19066
 k-point  5 :   0.5000 0.0000 0.5000  plane waves:   19072
 k-point  6 :   0.5000 0.5000 0.5000  plane waves:   19064

 maximum and minimum number of plane-waves per node :      2417     2354

 maximum number of plane-waves:     19093
 maximum index in each direction: 
   IXMAX=   16   IYMAX=   16   IZMAX=   16
   IXMIN=  -17   IYMIN=  -17   IZMIN=  -17


 real space projection operators:
  total allocation   :      16877.75 KBytes
  max/ min on nodes  :       2186.12       1915.25


 parallel 3D FFT for wavefunctions:
    minimum data exchange during FFTs selected (reduces bandwidth)
 parallel 3D FFT for charge:
    minimum data exchange during FFTs selected (reduces bandwidth)


 total amount of memory used by VASP MPI-rank0    58943. kBytes
=======================================================================

   base      :      30000. kBytes
   nonlr-proj:       6571. kBytes
   fftplans  :       8423. kBytes
   grid      :       7465. kBytes
   one-center:         77. kBytes
   wavefun   :       6407. kBytes

     INWAV:  cpu time    0.0000: real time    0.0000
 Broyden mixing: mesh for mixing (old mesh)
   NGX = 33   NGY = 33   NGZ = 33
  (NGX  =140   NGY  =140   NGZ  =140)
  gives a total of  35937 points

 initial charge density was supplied:
 charge density of overlapping atoms calculated
 number of electron     352.0000000 magnetization 
 keeping initial charge density in first step


--------------------------------------------------------------------------------------------------------


 Maximum index for non-local projection operator          712
 Maximum index for augmentation-charges         2962 (set IRDMAX)


--------------------------------------------------------------------------------------------------------


 First call to EWALD:  gamma=   0.151
 Maximum number of real-space cells 3x 3x 3
 Maximum number of reciprocal cells 3x 3x 3

    FEWALD:  cpu time    0.0039: real time    0.0039


--------------------------------------- Iteration      1(   1)  ---------------------------------------


    POTLOK:  cpu time    0.2615: real time    0.2729
    SETDIJ:  cpu time    1.1914: real time    1.1915
     EDDAV:  cpu time   12.8447: real time   12.8501
       DOS:  cpu time    0.0007: real time    0.0007
    --------------------------------------------
      LOOP:  cpu time   14.2984: real time   14.3152

 eigenvalue-minimisations  :  2688
 total energy-change (2. order) : 0.1461850E+04  (-0.1131765E+05)
 number of electron     352.0000000 magnetization 
 augmentation part      352.0000000 magnetization 

 Free energy of the ion-electron system (eV)
  ---------------------------------------------------
  alpha Z        PSCENC =       892.99476195
  Ewald energy   TEWEN  =    -18562.76173030
  -Hartree energ DENC   =     -7060.35209117
  -exchange      EXHF   =         0.00000000
  -V(xc)+E(xc)   XCENC  =       929.80076623
  PAW double counting   =     21633.96174531   -22707.92185401
  entropy T*S    EENTRO =        -0.00222801
  eigenvalues    EBANDS =      -244.42922416
  atomic energy  EATOM  =     26580.56019858
  Solvation  Ediel_sol  =         0.00000000
  ---------------------------------------------------
  free energy    TOTEN  =      1461.85034443 eV

  energy without entropy =     1461.85257244  energy(sigma->0) =     1461.85145844


--------------------------------------------------------------------------------------------------------




--------------------------------------- Iteration      1(   2)  ---------------------------------------


     EDDAV:  cpu time   14.4677: real time   14.4769
       DOS:  cpu time    0.0004: real time    0.0004
    --------------------------------------------
      LOOP:  cpu time   14.4681: real time   14.4772

 eigenvalue-minimisations  :  3232
 total energy-change (2. order) :-0.2529159E+04  (-0.2408685E+04)
 number of electron     352.0000000 magnetization 
 augmentation part      352.0000000 magnetization 

 Free energy of the ion-electron system (eV)
  ---------------------------------------------------
  alpha Z        PSCENC =       892.99476195
  Ewald energy   TEWEN  =    -18562.76173030
  -Hartree energ DENC   =     -7060.35209117
  -exchange      EXHF   =         0.00000000
  -V(xc)+E(xc)   XCENC  =       929.80076623
  PAW double counting   =     21633.96174531   -22707.92185401
  entropy T*S    EENTRO =        -0.00000000
  eigenvalues    EBANDS =     -2773.59017276
  atomic energy  EATOM  =     26580.56019858
  Solvation  Ediel_sol  =         0.00000000
  ---------------------------------------------------
  free energy    TOTEN  =     -1067.30837615 eV

  energy without entropy =    -1067.30837615  energy(sigma->0) =    -1067.30837615


--------------------------------------------------------------------------------------------------------




--------------------------------------- Iteration      1(   3)  ---------------------------------------


     EDDAV:  cpu time   15.0945: real time   15.1324
       DOS:  cpu time    0.0004: real time    0.0004
    --------------------------------------------
      LOOP:  cpu time   15.0949: real time   15.1328

 eigenvalue-minimisations  :  3456
 total energy-change (2. order) :-0.3867403E+03  (-0.3828643E+03)
 number of electron     352.0000000 magnetization 
 augmentation part      352.0000000 magnetization 

 Free energy of the ion-electron system (eV)
  ---------------------------------------------------
  alpha Z        PSCENC =       892.99476195
  Ewald energy   TEWEN  =    -18562.76173030
  -Hartree energ DENC   =     -7060.35209117
  -exchange      EXHF   =         0.00000000
  -V(xc)+E(xc)   XCENC  =       929.80076623
  PAW double counting   =     21633.96174531   -22707.92185401
  entropy T*S    EENTRO =        -0.00000000
  eigenvalues    EBANDS =     -3160.33045539
  atomic energy  EATOM  =     26580.56019858
  Solvation  Ediel_sol  =         0.00000000
  ---------------------------------------------------
  free energy    TOTEN  =     -1454.04865879 eV

  energy without entropy =    -1454.04865879  energy(sigma->0) =    -1454.04865879


--------------------------------------------------------------------------------------------------------




--------------------------------------- Iteration      1(   4)  ---------------------------------------


     EDDAV:  cpu time   13.8090: real time   13.8119
       DOS:  cpu time    0.0003: real time    0.0003
    --------------------------------------------
      LOOP:  cpu time   13.8093: real time   13.8123

 eigenvalue-minimisations  :  3000
 total energy-change (2. order) :-0.1329674E+02  (-0.1326732E+02)
 number of electron     352.0000000 magnetization 
 augmentation part      352.0000000 magnetization 

 Free energy of the ion-electron system (eV)
  ---------------------------------------------------
  alpha Z        PSCENC =       892.99476195
  Ewald energy   TEWEN  =    -18562.76173030
  -Hartree energ DENC   =     -7060.35209117
  -exchange      EXHF   =         0.00000000
  -V(xc)+E(xc)   XCENC  =       929.80076623
  PAW double counting   =     21633.96174531   -22707.92185401
  entropy T*S    EENTRO =        -0.00000000
  eigenvalues    EBANDS =     -3173.62719397
  atomic energy  EATOM  =     26580.56019858
  Solvation  Ediel_sol  =         0.00000000
  ---------------------------------------------------
  free energy    TOTEN  =     -1467.34539737 eV

  energy without entropy =    -1467.34539737  energy(sigma->0) =    -1467.34539737


--------------------------------------------------------------------------------------------------------




--------------------------------------- Iteration      1(   5)  ---------------------------------------


     EDDAV:  cpu time   15.0220: real time   15.0834
       DOS:  cpu time    0.0005: real time    0.0005
    CHARGE:  cpu time    2.7952: real time    2.7953
    MIXING:  cpu time    0.0016: real time    0.0016
    --------------------------------------------
      LOOP:  cpu time   17.8192: real time   17.8808

 eigenvalue-minimisations  :  3432
 total energy-change (2. order) :-0.6562584E+00  (-0.6560955E+00)
 number of electron     351.9999985 magnetization 
 augmentation part       -7.5784652 magnetization 

 Broyden mixing:
  rms(total) = 0.22319E+01    rms(broyden)= 0.22317E+01
  rms(prec ) = 0.27547E+01
  weight for this iteration     100.00

 Free energy of the ion-electron system (eV)
  ---------------------------------------------------
  alpha Z        PSCENC =       892.99476195
  Ewald energy   TEWEN  =    -18562.76173030
  -Hartree energ DENC   =     -7060.35209117
  -exchange      EXHF   =         0.00000000
  -V(xc)+E(xc)   XCENC  =       929.80076623
  PAW double counting   =     21633.96174531   -22707.92185401
  entropy T*S    EENTRO =        -0.00000000
  eigenvalues    EBANDS =     -3174.28345237
  atomic energy  EATOM  =     26580.56019858
  Solvation  Ediel_sol  =         0.00000000
  ---------------------------------------------------
  free energy    TOTEN  =     -1468.00165577 eV

  energy without entropy =    -1468.00165577  energy(sigma->0) =    -1468.00165577


--------------------------------------------------------------------------------------------------------




--------------------------------------- Iteration      1(   6)  ---------------------------------------


    POTLOK:  cpu time    0.2568: real time    0.2956
    SETDIJ:  cpu time    1.1965: real time    1.1965
     EDDAV:  cpu time   14.8798: real time   14.8805
       DOS:  cpu time    0.0004: real time    0.0004
    CHARGE:  cpu time    2.8168: real time    2.8170
    MIXING:  cpu time    0.0016: real time    0.0016
    --------------------------------------------
      LOOP:  cpu time   19.1518: real time   19.1916

 eigenvalue-minimisations  :  3400
 total energy-change (2. order) : 0.9114403E+02  (-0.3316138E+01)
 number of electron     351.9999986 magnetization 
 augmentation part       -5.3754902 magnetization 

 Broyden mixing:
  rms(total) = 0.15092E+01    rms(broyden)= 0.15091E+01
  rms(prec ) = 0.16802E+01
  weight for this iteration     100.00

 eigenvalues of (default mixing * dielectric matrix)
  average eigenvalue GAMMA=   1.6651
  1.6651

 Free energy of the ion-electron system (eV)
  ---------------------------------------------------
  alpha Z        PSCENC =       892.99476195
  Ewald energy   TEWEN  =    -18562.76173030
  -Hartree energ DENC   =     -7074.25058135
  -exchange      EXHF   =         0.00000000
  -V(xc)+E(xc)   XCENC  =       958.04172040
  PAW double counting   =     22459.41254771   -23529.17445588
  entropy T*S    EENTRO =        -0.00000000
  eigenvalues    EBANDS =     -3101.68008720
  atomic energy  EATOM  =     26580.56019858
  Solvation  Ediel_sol  =         0.00000000
  ---------------------------------------------------
  free energy    TOTEN  =     -1376.85762610 eV

  energy without entropy =    -1376.85762610  energy(sigma->0) =    -1376.85762610


--------------------------------------------------------------------------------------------------------




--------------------------------------- Iteration      1(   7)  ---------------------------------------


    POTLOK:  cpu time    0.2491: real time    0.3061
    SETDIJ:  cpu time    1.2091: real time    1.2092
     EDDAV:  cpu time   13.7958: real time   13.7963
       DOS:  cpu time    0.0004: real time    0.0004
    CHARGE:  cpu time    2.8291: real time    2.8293
    MIXING:  cpu time    0.0016: real time    0.0016
    --------------------------------------------
      LOOP:  cpu time   18.0851: real time   18.1429

 eigenvalue-minimisations  :  3024
 total energy-change (2. order) : 0.6154180E+00  (-0.1232197E+01)
 number of electron     351.9999986 magnetization 
 augmentation part       -4.7015188 magnetization 

 Broyden mixing:
  rms(total) = 0.53026E+00    rms(broyden)= 0.53021E+00
  rms(prec ) = 0.56724E+00
  weight for this iteration     100.00

 eigenvalues of (default mixing * dielectric matrix)
  average eigenvalue GAMMA=   1.5228
  1.1442  1.9014

 Free energy of the ion-electron system (eV)
  ---------------------------------------------------
  alpha Z        PSCENC =       892.99476195
  Ewald energy   TEWEN  =    -18562.76173030
  -Hartree energ DENC   =     -7128.61769302
  -exchange      EXHF   =         0.00000000
  -V(xc)+E(xc)   XCENC  =       966.97817607
  PAW double counting   =     23935.68529874   -24999.78416671
  entropy T*S    EENTRO =        -0.00000000
  eigenvalues    EBANDS =     -3061.29705340
  atomic energy  EATOM  =     26580.56019858
  Solvation  Ediel_sol  =         0.00000000
  ---------------------------------------------------
  free energy    TOTEN  =     -1376.24220809 eV

  energy without entropy =    -1376.24220809  energy(sigma->0) =    -1376.24220809


--------------------------------------------------------------------------------------------------------




--------------------------------------- Iteration      1(   8)  ---------------------------------------


    POTLOK:  cpu time    0.2833: real time    0.3027
    SETDIJ:  cpu time    1.1922: real time    1.1923
     EDDAV:  cpu time   13.2671: real time   13.2676
       DOS:  cpu time    0.0005: real time    0.0005
    CHARGE:  cpu time    2.8330: real time    2.8331
    MIXING:  cpu time    0.0016: real time    0.0016
    --------------------------------------------
      LOOP:  cpu time   17.5776: real time   17.5977

 eigenvalue-minimisations  :  2840
 total energy-change (2. order) :-0.2674419E+00  (-0.1466791E+00)
 number of electron     351.9999986 magnetization 
 augmentation part       -5.0523368 magnetization 

 Broyden mixing:
  rms(total) = 0.22676E+00    rms(broyden)= 0.22676E+00
  rms(prec ) = 0.25074E+00
  weight for this iteration     100.00

 eigenvalues of (default mixing * dielectric matrix)
  average eigenvalue GAMMA=   1.4880
  1.2138  1.2138  2.0365

 Free energy of the ion-electron system (eV)
  ---------------------------------------------------
  alpha Z        PSCENC =       892.99476195
  Ewald energy   TEWEN  =    -18562.76173030
  -Hartree energ DENC   =     -7120.93102854
  -exchange      EXHF   =         0.00000000
  -V(xc)+E(xc)   XCENC  =       967.09388480
  PAW double counting   =     24366.10557275   -25432.12228671
  entropy T*S    EENTRO =        -0.00000000
  eigenvalues    EBANDS =     -3067.44902248
  atomic energy  EATOM  =     26580.56019858
  Solvation  Ediel_sol  =         0.00000000
  ---------------------------------------------------
  free energy    TOTEN  =     -1376.50964995 eV

  energy without entropy =    -1376.50964995  energy(sigma->0) =    -1376.50964995


--------------------------------------------------------------------------------------------------------




--------------------------------------- Iteration      1(   9)  ---------------------------------------


    POTLOK:  cpu time    0.2958: real time    0.3080
    SETDIJ:  cpu time    1.1902: real time    1.1902
     EDDAV:  cpu time   13.2093: real time   13.2098
       DOS:  cpu time    0.0004: real time    0.0004
    CHARGE:  cpu time    2.8349: real time    2.8350
    MIXING:  cpu time    0.0016: real time    0.0016
    --------------------------------------------
      LOOP:  cpu time   17.5321: real time   17.5449

 eigenvalue-minimisations  :  2816
 total energy-change (2. order) :-0.4780552E-01  (-0.1897723E-01)
 number of electron     351.9999986 magnetization 
 augmentation part       -5.0764437 magnetization 

 Broyden mixing:
  rms(total) = 0.70228E-01    rms(broyden)= 0.70226E-01
  rms(prec ) = 0.79769E-01
  weight for this iteration     100.00

 eigenvalues of (default mixing * dielectric matrix)
  average eigenvalue GAMMA=   1.4647
  2.5152  1.2570  1.2570  0.8296

 Free energy of the ion-electron system (eV)
  ---------------------------------------------------
  alpha Z        PSCENC =       892.99476195
  Ewald energy   TEWEN  =    -18562.76173030
  -Hartree energ DENC   =     -7123.57295339
  -exchange      EXHF   =         0.00000000
  -V(xc)+E(xc)   XCENC  =       968.22535104
  PAW double counting   =     24678.37705587   -25745.57998705
  entropy T*S    EENTRO =        -0.00000000
  eigenvalues    EBANDS =     -3064.80015218
  atomic energy  EATOM  =     26580.56019858
  Solvation  Ediel_sol  =         0.00000000
  ---------------------------------------------------
  free energy    TOTEN  =     -1376.55745547 eV

  energy without entropy =    -1376.55745547  energy(sigma->0) =    -1376.55745547


--------------------------------------------------------------------------------------------------------




--------------------------------------- Iteration      1(  10)  ---------------------------------------


    POTLOK:  cpu time    0.2738: real time    0.3055
    SETDIJ:  cpu time    1.1933: real time    1.1934
     EDDAV:  cpu time   13.9072: real time   13.9078
       DOS:  cpu time    0.0004: real time    0.0004
    CHARGE:  cpu time    2.8307: real time    2.8308
    MIXING:  cpu time    0.0016: real time    0.0016
    --------------------------------------------
      LOOP:  cpu time   18.2071: real time   18.2394

 eigenvalue-minimisations  :  3064
 total energy-change (2. order) :-0.1877590E-01  (-0.3460899E-02)
 number of electron     351.9999986 magnetization 
 augmentation part       -5.1039908 magnetization 

 Broyden mixing:
  rms(total) = 0.32868E-01    rms(broyden)= 0.32868E-01
  rms(prec ) = 0.38109E-01
  weight for this iteration     100.00

 eigenvalues of (default mixing * dielectric matrix)
  average eigenvalue GAMMA=   1.6540
  2.4662  2.4662  1.0840  1.1268  1.1268

 Free energy of the ion-electron system (eV)
  ---------------------------------------------------
  alpha Z        PSCENC =       892.99476195
  Ewald energy   TEWEN  =    -18562.76173030
  -Hartree energ DENC   =     -7122.18184777
  -exchange      EXHF   =         0.00000000
  -V(xc)+E(xc)   XCENC  =       968.42797113
  PAW double counting   =     24775.95555705   -25844.13504396
  entropy T*S    EENTRO =        -0.00000000
  eigenvalues    EBANDS =     -3065.43609803
  atomic energy  EATOM  =     26580.56019858
  Solvation  Ediel_sol  =         0.00000000
  ---------------------------------------------------
  free energy    TOTEN  =     -1376.57623136 eV

  energy without entropy =    -1376.57623136  energy(sigma->0) =    -1376.57623136


--------------------------------------------------------------------------------------------------------




--------------------------------------- Iteration      1(  11)  ---------------------------------------


    POTLOK:  cpu time    0.3025: real time    0.3043
    SETDIJ:  cpu time    1.1980: real time    1.1981
     EDDAV:  cpu time   13.3006: real time   13.3011
       DOS:  cpu time    0.0004: real time    0.0004
    CHARGE:  cpu time    2.8427: real time    2.8429
    MIXING:  cpu time    0.0016: real time    0.0016
    --------------------------------------------
      LOOP:  cpu time   17.6459: real time   17.6484

 eigenvalue-minimisations  :  2848
 total energy-change (2. order) :-0.4301000E-02  (-0.6863769E-03)
 number of electron     351.9999986 magnetization 
 augmentation part       -5.1153369 magnetization 

 Broyden mixing:
  rms(total) = 0.66276E-02    rms(broyden)= 0.66258E-02
  rms(prec ) = 0.78373E-02
  weight for this iteration     100.00

 eigenvalues of (default mixing * dielectric matrix)
  average eigenvalue GAMMA=   1.5799
  2.5205  2.5205  1.3129  0.9525  1.0867  1.0867

 Free energy of the ion-electron system (eV)
  ---------------------------------------------------
  alpha Z        PSCENC =       892.99476195
  Ewald energy   TEWEN  =    -18562.76173030
  -Hartree energ DENC   =     -7119.15579318
  -exchange      EXHF   =         0.00000000
  -V(xc)+E(xc)   XCENC  =       968.33250036
  PAW double counting   =     24743.46158698   -25812.76500361
  entropy T*S    EENTRO =        -0.00000000
  eigenvalues    EBANDS =     -3067.24705314
  atomic energy  EATOM  =     26580.56019858
  Solvation  Ediel_sol  =         0.00000000
  ---------------------------------------------------
  free energy    TOTEN  =     -1376.58053237 eV

  energy without entropy =    -1376.58053237  energy(sigma->0) =    -1376.58053237


--------------------------------------------------------------------------------------------------------




--------------------------------------- Iteration      1(  12)  ---------------------------------------


    POTLOK:  cpu time    0.2582: real time    0.2918
    SETDIJ:  cpu time    1.1942: real time    1.1942
     EDDAV:  cpu time   14.5877: real time   14.5884
       DOS:  cpu time    0.0004: real time    0.0004
    CHARGE:  cpu time    2.8464: real time    2.8467
    MIXING:  cpu time    0.0016: real time    0.0016
    --------------------------------------------
      LOOP:  cpu time   18.8885: real time   18.9232

 eigenvalue-minimisations  :  3304
 total energy-change (2. order) :-0.3956255E-03  (-0.1226216E-03)
 number of electron     351.9999986 magnetization 
 augmentation part       -5.1140022 magnetization 

 Broyden mixing:
  rms(total) = 0.47102E-02    rms(broyden)= 0.47101E-02
  rms(prec ) = 0.55948E-02
  weight for this iteration     100.00

 eigenvalues of (default mixing * dielectric matrix)
  average eigenvalue GAMMA=   1.4868
  2.5999  2.5999  1.2558  1.2558  0.8983  0.8988  0.8988

 Free energy of the ion-electron system (eV)
  ---------------------------------------------------
  alpha Z        PSCENC =       892.99476195
  Ewald energy   TEWEN  =    -18562.76173030
  -Hartree energ DENC   =     -7119.35742146
  -exchange      EXHF   =         0.00000000
  -V(xc)+E(xc)   XCENC  =       968.32909215
  PAW double counting   =     24738.56439410   -25807.84065356
  entropy T*S    EENTRO =        -0.00000000
  eigenvalues    EBANDS =     -3067.06956945
  atomic energy  EATOM  =     26580.56019858
  Solvation  Ediel_sol  =         0.00000000
  ---------------------------------------------------
  free energy    TOTEN  =     -1376.58092799 eV

  energy without entropy =    -1376.58092799  energy(sigma->0) =    -1376.58092799


--------------------------------------------------------------------------------------------------------




--------------------------------------- Iteration      1(  13)  ---------------------------------------


    POTLOK:  cpu time    0.2764: real time    0.2923
    SETDIJ:  cpu time    1.1921: real time    1.1921
     EDDAV:  cpu time   13.6307: real time   13.6311
       DOS:  cpu time    0.0004: real time    0.0003
    CHARGE:  cpu time    2.8400: real time    2.8401
    MIXING:  cpu time    0.0020: real time    0.0020
    --------------------------------------------
      LOOP:  cpu time   17.9415: real time   17.9580

 eigenvalue-minimisations  :  2968
 total energy-change (2. order) :-0.1864456E-03  (-0.9511708E-05)
 number of electron     351.9999986 magnetization 
 augmentation part       -5.1148562 magnetization 

 Broyden mixing:
  rms(total) = 0.28622E-02    rms(broyden)= 0.28622E-02
  rms(prec ) = 0.35440E-02
  weight for this iteration     100.00

 eigenvalues of (default mixing * dielectric matrix)
  average eigenvalue GAMMA=   1.6023
  3.0156  2.5100  1.5241  1.5241  0.9878  0.9878  1.1347  1.1347

 Free energy of the ion-electron system (eV)
  ---------------------------------------------------
  alpha Z        PSCENC =       892.99476195
  Ewald energy   TEWEN  =    -18562.76173030
  -Hartree energ DENC   =     -7119.29462847
  -exchange      EXHF   =         0.00000000
  -V(xc)+E(xc)   XCENC  =       968.32461175
  PAW double counting   =     24736.98698414   -25806.28582732
  entropy T*S    EENTRO =        -0.00000000
  eigenvalues    EBANDS =     -3067.10548475
  atomic energy  EATOM  =     26580.56019858
  Solvation  Ediel_sol  =         0.00000000
  ---------------------------------------------------
  free energy    TOTEN  =     -1376.58111444 eV

  energy without entropy =    -1376.58111444  energy(sigma->0) =    -1376.58111444


--------------------------------------------------------------------------------------------------------




--------------------------------------- Iteration      1(  14)  ---------------------------------------


    POTLOK:  cpu time    0.2664: real time    0.3007
    SETDIJ:  cpu time    1.1969: real time    1.1969
     EDDAV:  cpu time   13.0683: real time   13.0688
       DOS:  cpu time    0.0004: real time    0.0004
    CHARGE:  cpu time    2.8404: real time    2.8405
    MIXING:  cpu time    0.0018: real time    0.0018
    --------------------------------------------
      LOOP:  cpu time   17.3741: real time   17.4091

 eigenvalue-minimisations  :  2768
 total energy-change (2. order) :-0.2538454E-03  (-0.1330215E-04)
 number of electron     351.9999986 magnetization 
 augmentation part       -5.1137201 magnetization 

 Broyden mixing:
  rms(total) = 0.97687E-03    rms(broyden)= 0.97667E-03
  rms(prec ) = 0.10286E-02
  weight for this iteration     100.00

 eigenvalues of (default mixing * dielectric matrix)
  average eigenvalue GAMMA=   1.5456
  2.9467  2.5491  1.5888  1.5888  1.2204  1.2204  0.9281  0.9341  0.9341

 Free energy of the ion-electron system (eV)
  ---------------------------------------------------
  alpha Z        PSCENC =       892.99476195
  Ewald energy   TEWEN  =    -18562.76173030
  -Hartree energ DENC   =     -7119.32436532
  -exchange      EXHF   =         0.00000000
  -V(xc)+E(xc)   XCENC  =       968.34237974
  PAW double counting   =     24736.52124391   -25805.83715271
  entropy T*S    EENTRO =        -0.00000000
  eigenvalues    EBANDS =     -3067.07670413
  atomic energy  EATOM  =     26580.56019858
  Solvation  Ediel_sol  =         0.00000000
  ---------------------------------------------------
  free energy    TOTEN  =     -1376.58136828 eV

  energy without entropy =    -1376.58136828  energy(sigma->0) =    -1376.58136828


--------------------------------------------------------------------------------------------------------




--------------------------------------- Iteration      1(  15)  ---------------------------------------


    POTLOK:  cpu time    0.2604: real time    0.3077
    SETDIJ:  cpu time    1.1930: real time    1.1930
     EDDAV:  cpu time   13.5004: real time   13.5008
       DOS:  cpu time    0.0004: real time    0.0004
    CHARGE:  cpu time    2.8425: real time    2.8426
    MIXING:  cpu time    0.0018: real time    0.0018
    --------------------------------------------
      LOOP:  cpu time   17.7985: real time   17.8464

 eigenvalue-minimisations  :  2920
 total energy-change (2. order) : 0.1099037E-04  (-0.2413190E-05)
 number of electron     351.9999986 magnetization 
 augmentation part       -5.1142842 magnetization 

 Broyden mixing:
  rms(total) = 0.56083E-03    rms(broyden)= 0.56080E-03
  rms(prec ) = 0.64238E-03
  weight for this iteration     100.00

 eigenvalues of (default mixing * dielectric matrix)
  average eigenvalue GAMMA=   1.5496
  2.8743  2.7442  1.7636  1.4484  1.4484  1.3770  1.0407  1.0407  0.9232  0.8355

 Free energy of the ion-electron system (eV)
  ---------------------------------------------------
  alpha Z        PSCENC =       892.99476195
  Ewald energy   TEWEN  =    -18562.76173030
  -Hartree energ DENC   =     -7119.33305581
  -exchange      EXHF   =         0.00000000
  -V(xc)+E(xc)   XCENC  =       968.34410038
  PAW double counting   =     24736.80585479   -25806.11118354
  entropy T*S    EENTRO =        -0.00000000
  eigenvalues    EBANDS =     -3067.08030334
  atomic energy  EATOM  =     26580.56019858
  Solvation  Ediel_sol  =         0.00000000
  ---------------------------------------------------
  free energy    TOTEN  =     -1376.58135729 eV

  energy without entropy =    -1376.58135729  energy(sigma->0) =    -1376.58135729


--------------------------------------------------------------------------------------------------------




--------------------------------------- Iteration      1(  16)  ---------------------------------------


    POTLOK:  cpu time    0.2845: real time    0.3127
    SETDIJ:  cpu time    1.1957: real time    1.1958
     EDDAV:  cpu time    9.8822: real time    9.8826
       DOS:  cpu time    0.0004: real time    0.0004
    CHARGE:  cpu time    2.8457: real time    2.8458
    MIXING:  cpu time    0.0019: real time    0.0019
    --------------------------------------------
      LOOP:  cpu time   14.2103: real time   14.2391

 eigenvalue-minimisations  :  1624
 total energy-change (2. order) : 0.5672887E-05  (-0.1467822E-06)
 number of electron     351.9999986 magnetization 
 augmentation part       -5.1141927 magnetization 

 Broyden mixing:
  rms(total) = 0.20858E-03    rms(broyden)= 0.20857E-03
  rms(prec ) = 0.23190E-03
  weight for this iteration     100.00

 eigenvalues of (default mixing * dielectric matrix)
  average eigenvalue GAMMA=   1.5711
  3.0804  2.4267  2.3316  1.6061  1.6061  1.2764  1.1182  1.0285  1.0285  0.8901
  0.8901

 Free energy of the ion-electron system (eV)
  ---------------------------------------------------
  alpha Z        PSCENC =       892.99476195
  Ewald energy   TEWEN  =    -18562.76173030
  -Hartree energ DENC   =     -7119.35447152
  -exchange      EXHF   =         0.00000000
  -V(xc)+E(xc)   XCENC  =       968.34692654
  PAW double counting   =     24736.47367243   -25805.77107550
  entropy T*S    EENTRO =        -0.00000000
  eigenvalues    EBANDS =     -3067.06963380
  atomic energy  EATOM  =     26580.56019858
  Solvation  Ediel_sol  =         0.00000000
  ---------------------------------------------------
  free energy    TOTEN  =     -1376.58135162 eV

  energy without entropy =    -1376.58135162  energy(sigma->0) =    -1376.58135162


--------------------------------------------------------------------------------------------------------




--------------------------------------- Iteration      1(  17)  ---------------------------------------


    POTLOK:  cpu time    0.2897: real time    0.3016
    SETDIJ:  cpu time    1.1968: real time    1.1968
     EDDAV:  cpu time    9.6296: real time    9.6299
       DOS:  cpu time    0.0004: real time    0.0004
    CHARGE:  cpu time    2.8518: real time    2.8519
    MIXING:  cpu time    0.0022: real time    0.0022
    --------------------------------------------
      LOOP:  cpu time   13.9704: real time   13.9828

 eigenvalue-minimisations  :  1536
 total energy-change (2. order) : 0.1351946E-04  (-0.8151043E-07)
 number of electron     351.9999986 magnetization 
 augmentation part       -5.1142629 magnetization 

 Broyden mixing:
  rms(total) = 0.95573E-04    rms(broyden)= 0.95564E-04
  rms(prec ) = 0.10557E-03
  weight for this iteration     100.00

 eigenvalues of (default mixing * dielectric matrix)
  average eigenvalue GAMMA=   1.5539
  3.0405  2.3959  2.3959  1.6011  1.6011  1.3368  1.3368  1.0811  1.0811  0.9441
  0.9441  0.8878

 Free energy of the ion-electron system (eV)
  ---------------------------------------------------
  alpha Z        PSCENC =       892.99476195
  Ewald energy   TEWEN  =    -18562.76173030
  -Hartree energ DENC   =     -7119.35979291
  -exchange      EXHF   =         0.00000000
  -V(xc)+E(xc)   XCENC  =       968.34757286
  PAW double counting   =     24736.57327390   -25805.86773669
  entropy T*S    EENTRO =        -0.00000000
  eigenvalues    EBANDS =     -3067.06788548
  atomic energy  EATOM  =     26580.56019858
  Solvation  Ediel_sol  =         0.00000000
  ---------------------------------------------------
  free energy    TOTEN  =     -1376.58133810 eV

  energy without entropy =    -1376.58133810  energy(sigma->0) =    -1376.58133810


--------------------------------------------------------------------------------------------------------




--------------------------------------- Iteration      1(  18)  ---------------------------------------


    POTLOK:  cpu time    0.2853: real time    0.3001
    SETDIJ:  cpu time    1.2000: real time    1.2000
     EDDAV:  cpu time   11.7984: real time   11.7990
       DOS:  cpu time    0.0004: real time    0.0004
    CHARGE:  cpu time    2.8475: real time    2.8475
    MIXING:  cpu time    0.0020: real time    0.0020
    --------------------------------------------
      LOOP:  cpu time   16.1335: real time   16.1491

 eigenvalue-minimisations  :  2312
 total energy-change (2. order) : 0.8699905E-05  (-0.2435526E-05)
 number of electron     351.9999986 magnetization 
 augmentation part       -5.1142215 magnetization 

 Broyden mixing:
  rms(total) = 0.32939E-03    rms(broyden)= 0.32938E-03
  rms(prec ) = 0.34592E-03
  weight for this iteration     100.00

 eigenvalues of (default mixing * dielectric matrix)
  average eigenvalue GAMMA=   1.4362
  3.0476  2.4392  2.4392  1.5704  1.5704  1.3375  1.3375  1.0713  1.0713  0.9289
  0.9289  0.8944  0.0344

 Free energy of the ion-electron system (eV)
  ---------------------------------------------------
  alpha Z        PSCENC =       892.99476195
  Ewald energy   TEWEN  =    -18562.76173030
  -Hartree energ DENC   =     -7119.35608843
  -exchange      EXHF   =         0.00000000
  -V(xc)+E(xc)   XCENC  =       968.34717987
  PAW double counting   =     24736.61800540   -25805.92664968
  entropy T*S    EENTRO =        -0.00000000
  eigenvalues    EBANDS =     -3067.05700680
  atomic energy  EATOM  =     26580.56019858
  Solvation  Ediel_sol  =         0.00000000
  ---------------------------------------------------
  free energy    TOTEN  =     -1376.58132940 eV

  energy without entropy =    -1376.58132940  energy(sigma->0) =    -1376.58132940


--------------------------------------------------------------------------------------------------------




--------------------------------------- Iteration      1(  19)  ---------------------------------------


    POTLOK:  cpu time    0.2583: real time    0.3035
    SETDIJ:  cpu time    1.1988: real time    1.1989
     EDDAV:  cpu time   11.5893: real time   11.5898
       DOS:  cpu time    0.0004: real time    0.0004
    CHARGE:  cpu time    2.8487: real time    2.8488
    MIXING:  cpu time    0.0020: real time    0.0021
    --------------------------------------------
      LOOP:  cpu time   15.8976: real time   15.9434

 eigenvalue-minimisations  :  2240
 total energy-change (2. order) :-0.8819521E-05  (-0.2167548E-05)
 number of electron     351.9999986 magnetization 
 augmentation part       -5.1142267 magnetization 

 Broyden mixing:
  rms(total) = 0.58608E-04    rms(broyden)= 0.58587E-04
  rms(prec ) = 0.65007E-04
  weight for this iteration     100.00

 eigenvalues of (default mixing * dielectric matrix)
  average eigenvalue GAMMA=   1.3892
  3.0683  2.4450  2.4450  1.6351  1.6351  1.3824  1.3824  1.0864  1.0864  0.9539
  0.9539  0.8761  0.4543  0.0442

 Free energy of the ion-electron system (eV)
  ---------------------------------------------------
  alpha Z        PSCENC =       892.99476195
  Ewald energy   TEWEN  =    -18562.76173030
  -Hartree energ DENC   =     -7119.35699913
  -exchange      EXHF   =         0.00000000
  -V(xc)+E(xc)   XCENC  =       968.34769940
  PAW double counting   =     24736.63259824   -25805.92681318
  entropy T*S    EENTRO =        -0.00000000
  eigenvalues    EBANDS =     -3067.07105378
  atomic energy  EATOM  =     26580.56019858
  Solvation  Ediel_sol  =         0.00000000
  ---------------------------------------------------
  free energy    TOTEN  =     -1376.58133822 eV

  energy without entropy =    -1376.58133822  energy(sigma->0) =    -1376.58133822


--------------------------------------------------------------------------------------------------------




--------------------------------------- Iteration      1(  20)  ---------------------------------------


    POTLOK:  cpu time    0.2726: real time    0.3016
    SETDIJ:  cpu time    1.1902: real time    1.1903
     EDDAV:  cpu time   10.2734: real time   10.2739
       DOS:  cpu time    0.0004: real time    0.0004
    --------------------------------------------
      LOOP:  cpu time   11.7366: real time   11.7661

 eigenvalue-minimisations  :  1768
 total energy-change (2. order) : 0.1946273E-07  (-0.1365206E-06)
 number of electron     351.9999986 magnetization 
 augmentation part       -5.1142267 magnetization 

 Free energy of the ion-electron system (eV)
  ---------------------------------------------------
  alpha Z        PSCENC =       892.99476195
  Ewald energy   TEWEN  =    -18562.76173030
  -Hartree energ DENC   =     -7119.35520651
  -exchange      EXHF   =         0.00000000
  -V(xc)+E(xc)   XCENC  =       968.34722781
  PAW double counting   =     24736.64623790   -25805.94065552
  entropy T*S    EENTRO =        -0.00000000
  eigenvalues    EBANDS =     -3067.07217211
  atomic energy  EATOM  =     26580.56019858
  Solvation  Ediel_sol  =         0.00000000
  ---------------------------------------------------
  free energy    TOTEN  =     -1376.58133820 eV

  energy without entropy =    -1376.58133820  energy(sigma->0) =    -1376.58133820


--------------------------------------------------------------------------------------------------------




 average (electrostatic) potential at core
  the test charge radii are     1.1312  1.1541  1.0178
  (the norm of the test charge is              1.0000)
       1 -53.9596       2 -53.9593       3 -53.9594       4 -53.9593       5 -53.9594
       6 -53.9593       7 -53.9596       8 -53.9593       9-102.6691      10-102.6691
      11-102.6691      12-102.6691      13-102.6691      14-102.6691      15-102.6691
      16-102.6691      17 -69.0886      18 -69.0886      19 -69.0886      20 -69.0886
      21 -69.0886      22 -69.0886      23 -69.0886      24 -69.0886      25 -69.1742
      26 -69.1742      27 -69.1742      28 -69.1742      29 -69.1742      30 -69.1742
      31 -69.1742      32 -69.1742      33 -69.0886      34 -69.0886      35 -69.0886
      36 -69.0886      37 -69.0886      38 -69.0886      39 -69.0886      40 -69.0886



 E-fermi :   0.6774     XC(G=0):  -7.9931     alpha+bet : -7.0048


 k-point     1 :       0.0000    0.0000    0.0000
  band No.  band energies     occupation 
      1     -20.4463      2.00000
      2     -20.4415      2.00000
      3     -20.4403      2.00000
      4     -20.4403      2.00000
      5     -20.4362      2.00000
      6     -20.4362      2.00000
      7     -20.4349      2.00000
      8     -20.4303      2.00000
      9     -17.2899      2.00000
     10     -17.2882      2.00000
     11     -17.2864      2.00000
     12     -17.2856      2.00000
     13     -17.2856      2.00000
     14     -17.2840      2.00000
     15     -17.2840      2.00000
     16     -17.2800      2.00000
     17     -17.2753      2.00000
     18     -17.2748      2.00000
     19     -17.2748      2.00000
     20     -17.2726      2.00000
     21     -17.2724      2.00000
     22     -17.2724      2.00000
     23     -17.2722      2.00000
     24     -17.2718      2.00000
     25     -17.2715      2.00000
     26     -17.2715      2.00000
     27     -17.2715      2.00000
     28     -17.2704      2.00000
     29     -17.2702      2.00000
     30     -17.2700      2.00000
     31     -17.2700      2.00000
     32     -17.2693      2.00000
     33     -17.2584      2.00000
     34     -17.2584      2.00000
     35     -17.2584      2.00000
     36     -17.2584      2.00000
     37     -17.2570      2.00000
     38     -17.2570      2.00000
     39     -17.2570      2.00000
     40     -17.2568      2.00000
     41     -17.2519      2.00000
     42     -17.2519      2.00000
     43     -17.2519      2.00000
     44     -17.2517      2.00000
     45     -17.2512      2.00000
     46     -17.2512      2.00000
     47     -17.2511      2.00000
     48     -17.2510      2.00000
     49     -14.8079      2.00000
     50     -14.8011      2.00000
     51     -14.8011      2.00000
     52     -14.7724      2.00000
     53     -14.7724      2.00000
     54     -14.7630      2.00000
     55     -14.7540      2.00000
     56     -14.7276      2.00000
     57     -14.4462      2.00000
     58     -14.3943      2.00000
     59     -14.3943      2.00000
     60     -14.3809      2.00000
     61     -14.3524      2.00000
     62     -14.3524      2.00000
     63     -14.3390      2.00000
     64     -14.3261      2.00000
     65     -14.0354      2.00000
     66     -13.9429      2.00000
     67     -13.9429      2.00000
     68     -13.9385      2.00000
     69     -13.9062      2.00000
     70     -13.8958      2.00000
     71     -13.8874      2.00000
     72     -13.8874      2.00000
     73      -8.1078      2.00000
     74      -8.0861      2.00000
     75      -8.0861      2.00000
     76      -8.0206      2.00000
     77      -8.0206      2.00000
     78      -8.0185      2.00000
     79      -7.8760      2.00000
     80      -7.7670      2.00000
     81      -7.4141      2.00000
     82      -7.4016      2.00000
     83      -7.4016      2.00000
     84      -7.3316      2.00000
     85      -7.3107      2.00000
     86      -7.2316      2.00000
     87      -7.1222      2.00000
     88      -7.0763      2.00000
     89      -7.0516      2.00000
     90      -7.0321      2.00000
     91      -7.0321      2.00000
     92      -7.0165      2.00000
     93      -7.0164      2.00000
     94      -6.9146      2.00000
     95      -6.9146      2.00000
     96      -6.8656      2.00000
     97      -6.8649      2.00000
     98      -6.8632      2.00000
     99      -6.8632      2.00000
    100      -6.8598      2.00000
    101      -6.8233      2.00000
    102      -6.8233      2.00000
    103      -6.8139      2.00000
    104      -6.7166      2.00000
    105      -2.7546      2.00000
    106      -2.7512      2.00000
    107      -2.7512      2.00000
    108      -2.7239      2.00000
    109      -2.7239      2.00000
    110      -2.7148      2.00000
    111      -2.7028      2.00000
    112      -2.5395      2.00000
    113      -2.4317      2.00000
    114      -2.4167      2.00000
    115      -2.4167      2.00000
    116      -2.3868      2.00000
    117      -2.3051      2.00000
    118      -2.2865      2.00000
    119      -2.2814      2.00000
    120      -2.2814      2.00000
    121      -2.1839      2.00000
    122      -2.1387      2.00000
    123      -2.1387      2.00000
    124      -2.0329      2.00000
    125      -2.0171      2.00000
    126      -1.9185      2.00000
[...]
 total charge-density along one line

 pseudopotential strength for first ion, spin component:           1
 17.554  -4.595  -0.001  -0.000   0.024  -0.001   0.000  -0.035
 -4.595   1.212  -0.000   0.000  -0.006   0.002  -0.000   0.010
 -0.001  -0.000   2.121  -0.000  -0.005  -2.506   0.000   0.008
 -0.000   0.000  -0.000   2.118  -0.000   0.000  -2.501   0.000
  0.024  -0.006  -0.005  -0.000   2.123   0.008   0.000  -2.506
 -0.001   0.002  -2.506   0.000   0.008   2.920  -0.000  -0.012
  0.000  -0.000   0.000  -2.501   0.000  -0.000   2.910  -0.000
 -0.035   0.010   0.008   0.000  -2.506  -0.012  -0.000   2.916
 -0.006   0.002   0.009  -0.000   0.004  -0.014   0.000  -0.003
 -0.000   0.000  -0.000  -0.004  -0.000   0.000   0.005   0.000
 -0.003   0.001  -0.003  -0.000  -0.005   0.003   0.000   0.008
 -0.000   0.000  -0.000   0.009   0.000   0.000  -0.011  -0.000
  0.001  -0.000   0.003   0.000   0.009  -0.004  -0.000  -0.011
 total augmentation occupancy for first ion, spin component:           1
  2.018   0.038  -0.000   0.000  -0.002  -0.011   0.000  -0.011   0.012  -0.000  -0.001  -0.000   0.013
  0.038   0.785   0.020   0.000   0.049   0.076   0.000   0.115  -0.143   0.000  -0.021   0.000  -0.118
 -0.000   0.020   2.126   0.000  -0.015   0.126   0.000  -0.028   0.026   0.000   0.008   0.000  -0.014
  0.000   0.000   0.000   2.106   0.000   0.000   0.090   0.000   0.000   0.011   0.000   0.015  -0.000
 -0.002   0.049  -0.015   0.000   2.115  -0.028   0.000   0.089  -0.009   0.000  -0.015   0.000   0.013
 -0.011   0.076   0.126   0.000  -0.028   0.138   0.000  -0.045   0.065  -0.000   0.054   0.000  -0.049
  0.000   0.000   0.000   0.090   0.000   0.000   0.082   0.000   0.000   0.085   0.000   0.007   0.000
 -0.011   0.115  -0.028   0.000   0.089  -0.045   0.000   0.062  -0.051   0.000  -0.036   0.000   0.010
  0.012  -0.143   0.026   0.000  -0.009   0.065   0.000  -0.051   0.095   0.000   0.048   0.000  -0.004
 -0.000   0.000   0.000   0.011   0.000  -0.000   0.085   0.000   0.000   0.134   0.000  -0.008  -0.000
 -0.001  -0.021   0.008   0.000  -0.015   0.054   0.000  -0.036   0.048   0.000   0.058  -0.000  -0.008
 -0.000   0.000   0.000   0.015   0.000   0.000   0.007   0.000   0.000  -0.008  -0.000   0.021   0.000
  0.013  -0.118  -0.014  -0.000   0.013  -0.049   0.000   0.010  -0.004  -0.000  -0.008   0.000   0.060


------------------------ aborting loop because EDIFF is reached ----------------------------------------





 total charge     

# of ion       s       p       d       tot
------------------------------------------
    1        1.864   4.709   0.279   6.852
    2        1.864   4.709   0.279   6.853
    3        1.864   4.705   0.278   6.848
    4        1.864   4.705   0.278   6.848
    5        1.864   4.705   0.278   6.848
    6        1.864   4.705   0.278   6.848
    7        1.864   4.709   0.279   6.852
    8        1.864   4.709   0.279   6.853
    9        1.541   0.339   9.810  11.691
   10        1.541   0.339   9.810  11.691
   11        1.541   0.339   9.810  11.691
   12        1.541   0.339   9.810  11.691
   13        1.541   0.339   9.810  11.691
   14        1.541   0.339   9.810  11.691
   15        1.541   0.339   9.810  11.691
   16        1.541   0.339   9.810  11.691
   17        1.632   3.303   0.019   4.954
   18        1.632   3.303   0.019   4.954
   19        1.632   3.303   0.019   4.954
   20        1.632   3.303   0.019   4.954
   21        1.632   3.303   0.019   4.954
   22        1.632   3.303   0.019   4.954
   23        1.632   3.303   0.019   4.954
   24        1.632   3.303   0.019   4.954
   25        1.639   3.304   0.025   4.968
   26        1.639   3.304   0.025   4.968
   27        1.639   3.307   0.025   4.971
   28        1.639   3.307   0.025   4.971
   29        1.639   3.307   0.025   4.971
   30        1.639   3.307   0.025   4.971
   31        1.639   3.304   0.025   4.968
   32        1.639   3.304   0.025   4.968
   33        1.631   3.301   0.019   4.951
   34        1.631   3.301   0.019   4.951
   35        1.631   3.301   0.019   4.951
   36        1.631   3.301   0.019   4.951
   37        1.631   3.301   0.019   4.951
   38        1.631   3.301   0.019   4.951
   39        1.631   3.301   0.019   4.951
   40        1.631   3.301   0.019   4.951
--------------------------------------------------
tot         66.458 119.648  81.213 267.318

    CHARGE:  cpu time    0.3923: real time    0.3924
    FORLOC:  cpu time    0.0113: real time    0.0113
    FORNL :  cpu time    1.5529: real time    1.5529
    STRESS:  cpu time   39.6959: real time   39.6972
    FORCOR:  cpu time    0.2410: real time    0.2410
    FORHAR:  cpu time    0.0275: real time    0.0275
    MIXING:  cpu time    0.0021: real time    0.0021
    OFIELD:  cpu time    0.0000: real time    0.0000

  FORCE on cell =-STRESS in cart. coord.  units (eV):
  Direction    XX          YY          ZZ          XY          YZ          ZX
  --------------------------------------------------------------------------------------
  Alpha Z   892.99476   892.99476   892.99476
  Ewald   -6206.37367 -6206.37367 -6150.10013 -1112.35772     0.00000     0.00000
  Hartree  2333.11067  2333.11067  2453.13084  -516.93862    -0.00000    -0.00000
  E(xc)   -1486.03338 -1485.96191 -1485.85938    -1.92281     0.00001     0.00001
  Local   -2627.65854 -2627.65854 -2826.29799  1580.74325     0.00000    -0.00000
  n-local  1799.66172  1801.25353  1799.21833    -0.95591     0.00001     0.00001
  augment   815.71381   815.71381   814.75363    -2.43940    -0.00001    -0.00001
  Kinetic  4576.21513  4579.25155  4580.47178   -15.65921    -0.00000     0.00000
  Fock        0.00000     0.00000     0.00000     0.00000     0.00000     0.00000
  -------------------------------------------------------------------------------------
  Total      99.98035    99.98035    78.31183   -69.53061     0.00000     0.00000
  in kB      99.11443    99.11443    77.63358   -68.92841     0.00000     0.00000
  external pressure =       91.95 kB  Pullay stress =        0.00 kB


 VOLUME and BASIS-vectors are now :
 -----------------------------------------------------------------------------
  energy-cutoff  :      300.00
  volume of cell :     1616.17
      direct lattice vectors                 reciprocal lattice vectors
    11.735352000  0.000000000  0.000000000     0.085212612  0.000000000  0.000000000
     0.000000000 11.735352000  0.000000000     0.000000000  0.085212612  0.000000000
     0.000000000  0.000000000 11.735352000     0.000000000  0.000000000  0.085212612

  length of vectors
    11.735352000 11.735352000 11.735352000     0.085212612  0.085212612  0.085212612


 FORCES acting on ions
    electron-ion (+dipol)            ewald-force                    non-local-force                 convergence-correction
 -----------------------------------------------------------------------------------------------
   0.588E+02 0.555E+02 -.368E-07   -.626E+02 -.571E+02 -.151E-13   -.222E+01 -.191E+01 -.142E-23   0.270E-04 0.568E-04 0.137E-11
   -.588E+02 -.555E+02 0.368E-07   0.626E+02 0.571E+02 0.000E+00   0.222E+01 0.191E+01 0.182E-23   -.270E-04 -.568E-04 -.133E-11
   0.555E+02 0.588E+02 -.368E-07   -.571E+02 -.626E+02 -.178E-14   -.191E+01 -.222E+01 -.856E-24   0.568E-04 0.270E-04 0.141E-11
   -.555E+02 -.588E+02 0.368E-07   0.571E+02 0.626E+02 -.204E-13   0.191E+01 0.222E+01 -.115E-22   -.568E-04 -.270E-04 -.138E-11
   0.555E+02 0.588E+02 -.368E-07   -.571E+02 -.626E+02 0.355E-14   -.191E+01 -.222E+01 0.119E-22   0.568E-04 0.270E-04 0.144E-11
   -.555E+02 -.588E+02 0.368E-07   0.571E+02 0.626E+02 -.142E-13   0.191E+01 0.222E+01 -.122E-22   -.568E-04 -.270E-04 -.140E-11
   0.588E+02 0.555E+02 -.368E-07   -.626E+02 -.571E+02 -.142E-13   -.222E+01 -.191E+01 0.877E-23   0.270E-04 0.568E-04 0.141E-11
   -.588E+02 -.555E+02 0.368E-07   0.626E+02 0.571E+02 0.000E+00   0.222E+01 0.191E+01 0.442E-23   -.270E-04 -.568E-04 -.138E-11
   -.109E-13 0.128E-12 0.326E-13   0.115E-12 0.488E-13 -.391E-13   -.529E-22 0.000E+00 -.143E-22   -.132E-13 0.514E-14 -.261E-12
   0.110E-12 0.174E-12 0.109E-11   0.114E-12 0.870E-13 -.533E-14   -.529E-22 -.132E-22 0.260E-22   0.151E-13 -.987E-13 -.104E-12
   0.107E-12 0.137E-11 0.774E-13   0.391E-13 0.622E-13 -.746E-13   -.132E-22 -.529E-22 -.715E-23   -.798E-13 -.164E-15 -.421E-12
   0.637E-13 0.121E-11 0.102E-11   0.568E-13 0.782E-13 0.213E-13   0.000E+00 -.529E-22 0.519E-22   -.221E-12 0.108E-12 0.559E-13
   0.174E-11 -.938E-14 0.675E-11   0.444E-13 0.373E-13 -.719E-13   -.132E-22 -.529E-22 0.263E-22   -.288E-13 0.136E-12 -.139E-12
   -.104E-11 0.136E-11 -.723E-11   0.462E-13 0.622E-13 0.266E-13   0.000E+00 -.529E-22 -.221E-21   -.656E-13 0.218E-12 -.241E-12
   0.190E-11 -.404E-11 0.622E-12   0.746E-13 0.693E-13 -.462E-13   -.529E-22 0.000E+00 -.122E-23   0.302E-13 -.111E-12 -.362E-12
   0.159E-11 -.284E-11 -.115E-11   0.128E-12 0.782E-13 0.711E-14   -.529E-22 -.132E-22 -.952E-22   0.195E-12 -.220E-12 -.255E-13
   -.280E+02 0.332E+01 0.361E+02   0.289E+02 -.329E+01 -.370E+02   0.354E+01 0.566E-01 -.357E+01   -.353E-04 0.114E-04 0.601E-04
   -.280E+02 0.332E+01 -.361E+02   0.289E+02 -.329E+01 0.370E+02   0.354E+01 0.566E-01 0.357E+01   -.353E-04 0.114E-04 -.601E-04
   0.280E+02 -.332E+01 -.361E+02   -.289E+02 0.329E+01 0.370E+02   -.354E+01 -.566E-01 0.357E+01   0.353E-04 -.114E-04 -.601E-04
   0.280E+02 -.332E+01 0.361E+02   -.289E+02 0.329E+01 -.370E+02   -.354E+01 -.566E-01 -.357E+01   0.353E-04 -.114E-04 0.601E-04
   0.280E+02 -.332E+01 -.361E+02   -.289E+02 0.329E+01 0.370E+02   -.354E+01 -.566E-01 0.357E+01   0.353E-04 -.114E-04 -.601E-04
   0.280E+02 -.332E+01 0.361E+02   -.289E+02 0.329E+01 -.370E+02   -.354E+01 -.566E-01 -.357E+01   0.353E-04 -.114E-04 0.601E-04
   -.280E+02 0.332E+01 0.361E+02   0.289E+02 -.329E+01 -.370E+02   0.354E+01 0.566E-01 -.357E+01   -.353E-04 0.114E-04 0.601E-04
   -.280E+02 0.332E+01 -.361E+02   0.289E+02 -.329E+01 0.370E+02   0.354E+01 0.566E-01 0.357E+01   -.353E-04 0.114E-04 -.601E-04
   0.282E+02 -.340E+02 0.519E-08   -.297E+02 0.354E+02 0.258E-13   -.410E+01 0.437E+01 -.238E-23   0.183E-04 -.254E-04 0.166E-12
   -.282E+02 0.340E+02 -.518E-08   0.297E+02 -.354E+02 0.204E-13   0.410E+01 -.437E+01 -.177E-23   -.183E-04 0.254E-04 -.768E-13
   -.340E+02 0.282E+02 0.518E-08   0.354E+02 -.297E+02 0.142E-13   0.437E+01 -.410E+01 -.177E-24   -.254E-04 0.183E-04 0.215E-12
   0.340E+02 -.282E+02 -.518E-08   -.354E+02 0.297E+02 0.160E-13   -.437E+01 0.410E+01 0.177E-23   0.254E-04 -.183E-04 -.892E-13
   -.340E+02 0.282E+02 0.518E-08   0.354E+02 -.297E+02 0.115E-13   0.437E+01 -.410E+01 0.343E-23   -.254E-04 0.183E-04 0.162E-12
   0.340E+02 -.282E+02 -.518E-08   -.354E+02 0.297E+02 0.160E-13   -.437E+01 0.410E+01 0.142E-23   0.254E-04 -.183E-04 -.822E-13
   0.282E+02 -.340E+02 0.518E-08   -.297E+02 0.354E+02 0.195E-13   -.410E+01 0.437E+01 -.113E-23   0.183E-04 -.254E-04 0.206E-12
   -.282E+02 0.340E+02 -.518E-08   0.297E+02 -.354E+02 0.178E-13   0.410E+01 -.437E+01 0.112E-23   -.183E-04 0.254E-04 -.838E-13
   -.332E+01 0.280E+02 -.361E+02   0.329E+01 -.289E+02 0.370E+02   -.566E-01 -.354E+01 0.357E+01   -.114E-04 0.353E-04 -.601E-04
   -.332E+01 0.280E+02 0.361E+02   0.329E+01 -.289E+02 -.370E+02   -.566E-01 -.354E+01 -.357E+01   -.114E-04 0.353E-04 0.601E-04
   0.332E+01 -.280E+02 0.361E+02   -.329E+01 0.289E+02 -.370E+02   0.566E-01 0.354E+01 -.357E+01   0.114E-04 -.353E-04 0.601E-04
   0.332E+01 -.280E+02 -.361E+02   -.329E+01 0.289E+02 0.370E+02   0.566E-01 0.354E+01 0.357E+01   0.114E-04 -.353E-04 -.601E-04
   0.332E+01 -.280E+02 0.361E+02   -.329E+01 0.289E+02 -.370E+02   0.566E-01 0.354E+01 -.357E+01   0.114E-04 -.353E-04 0.601E-04
   0.332E+01 -.280E+02 -.361E+02   -.329E+01 0.289E+02 0.370E+02   0.566E-01 0.354E+01 0.357E+01   0.114E-04 -.353E-04 -.601E-04
   -.332E+01 0.280E+02 -.361E+02   0.329E+01 -.289E+02 0.370E+02   -.566E-01 -.354E+01 0.357E+01   -.114E-04 0.353E-04 -.601E-04
   -.332E+01 0.280E+02 0.361E+02   0.329E+01 -.289E+02 -.370E+02   -.566E-01 -.354E+01 -.357E+01   -.114E-04 0.353E-04 0.601E-04
 -----------------------------------------------------------------------------------------------
   0.114E-10 -.195E-11 0.194E-10   -.226E-13 0.568E-13 0.213E-13   0.888E-15 -.888E-15 0.444E-15   0.227E-12 0.367E-12 -.128E-11


 POSITION                                       TOTAL-FORCE (eV/Angst)
 -----------------------------------------------------------------------------------
      2.93384      2.93384      2.93384        -5.550586     -3.104433     -0.000000
      2.93384      2.93384      8.80151         5.550586      3.104433     -0.000000
      2.93384      8.80151      2.93384        -3.104433     -5.550586     -0.000000
      2.93384      8.80151      8.80151         3.104433      5.550586     -0.000000
      8.80151      2.93384      2.93384        -3.104433     -5.550586     -0.000000
      8.80151      2.93384      8.80151         3.104433      5.550586     -0.000000
      8.80151      8.80151      2.93384        -5.550586     -3.104433     -0.000000
      8.80151      8.80151      8.80151         5.550586      3.104433     -0.000000
      0.00000      0.00000      0.00000         0.000000     -0.000000     -0.000000
      0.00000      0.00000      5.86768         0.000000      0.000000     -0.000000
      0.00000      5.86768      0.00000         0.000000      0.000000     -0.000000
      0.00000      5.86768      5.86768         0.000000      0.000000     -0.000000
      5.86768      0.00000      0.00000         0.000000      0.000000     -0.000000
      5.86768      0.00000      5.86768         0.000000     -0.000000     -0.000000
      5.86768      5.86768      0.00000         0.000000      0.000000     -0.000000
      5.86768      5.86768      5.86768         0.000000     -0.000000     -0.000000
     10.67917      2.93384      1.17354         4.489831      0.085517     -4.473237
     10.67917      2.93384      4.69414         4.489831      0.085517      4.473237
      1.05618      8.80151     10.56182        -4.489831     -0.085517      4.473237
      1.05618      8.80151      7.04121        -4.489831     -0.085517     -4.473237
      6.92386      2.93384     10.56182        -4.489831     -0.085517      4.473237
      6.92386      2.93384      7.04121        -4.489831     -0.085517     -4.473237
      4.81149      8.80151      1.17354         4.489831      0.085517     -4.473237
      4.81149      8.80151      4.69414         4.489831      0.085517      4.473237
      1.17354     10.56182      2.93384        -5.542200      5.725050     -0.000000
     10.56182      1.17354      8.80151         5.542200     -5.725050     -0.000000
     10.56182      7.04121      2.93384         5.725050     -5.542200     -0.000000
      1.17354      4.69414      8.80151        -5.725050      5.542200     -0.000000
      4.69414      1.17354      2.93384         5.725050     -5.542200     -0.000000
      7.04121     10.56182      8.80151        -5.725050      5.542200     -0.000000
      7.04121      4.69414      2.93384        -5.542200      5.725050     -0.000000
      4.69414      7.04121      8.80151         5.542200     -5.725050     -0.000000
      2.93384      1.05618     10.56182        -0.085517     -4.489831      4.473237
      2.93384      1.05618      7.04121        -0.085517     -4.489831     -4.473237
      2.93384      4.81149      1.17354         0.085517      4.489831     -4.473237
      2.93384      4.81149      4.69414         0.085517      4.489831      4.473237
      8.80151     10.67917      1.17354         0.085517      4.489831     -4.473237
      8.80151     10.67917      4.69414         0.085517      4.489831      4.473237
      8.80151      6.92386     10.56182        -0.085517     -4.489831      4.473237
      8.80151      6.92386      7.04121        -0.085517     -4.489831     -4.473237
 -----------------------------------------------------------------------------------
    total drift:                                0.000000     -0.000000      0.000000


--------------------------------------------------------------------------------------------------------



  FREE ENERGIE OF THE ION-ELECTRON SYSTEM (eV)
  ---------------------------------------------------
  free  energy   TOTEN  =     -1376.58133820 eV

  energy  without entropy=    -1376.58133820  energy(sigma->0) =    -1376.58133820



--------------------------------------------------------------------------------------------------------


    POTLOK:  cpu time    1.4306: real time    1.4308


--------------------------------------------------------------------------------------------------------


 stress matrix after NEB project (eV)
     99.98035    -69.53061      0.00000
    -69.53061     99.98035      0.00000
      0.00000      0.00000     78.31183
  FORCES: max atom, RMS     7.968198    6.071082
  FORCE total and by dimension   38.396894    5.725050
  Stress total and by dimension  189.192752   99.980354
     LOOP+:  cpu time  377.0330: real time  377.8834
    4ORBIT:  cpu time    0.0000: real time    0.0000



 total charge     

# of ion       s       p       d       tot
------------------------------------------
    1        1.864   4.709   0.279   6.852
    2        1.864   4.709   0.279   6.853
    3        1.864   4.705   0.278   6.848
    4        1.864   4.705   0.278   6.848
    5        1.864   4.705   0.278   6.848
    6        1.864   4.705   0.278   6.848
    7        1.864   4.709   0.279   6.852
    8        1.864   4.709   0.279   6.853
    9        1.541   0.339   9.810  11.691
   10        1.541   0.339   9.810  11.691
   11        1.541   0.339   9.810  11.691
   12        1.541   0.339   9.810  11.691
   13        1.541   0.339   9.810  11.691
   14        1.541   0.339   9.810  11.691
   15        1.541   0.339   9.810  11.691
   16        1.541   0.339   9.810  11.691
   17        1.632   3.303   0.019   4.954
   18        1.632   3.303   0.019   4.954
   19        1.632   3.303   0.019   4.954
   20        1.632   3.303   0.019   4.954
   21        1.632   3.303   0.019   4.954
   22        1.632   3.303   0.019   4.954
   23        1.632   3.303   0.019   4.954
   24        1.632   3.303   0.019   4.954
   25        1.639   3.304   0.025   4.968
   26        1.639   3.304   0.025   4.968
   27        1.639   3.307   0.025   4.971
   28        1.639   3.307   0.025   4.971
   29        1.639   3.307   0.025   4.971
   30        1.639   3.307   0.025   4.971
   31        1.639   3.304   0.025   4.968
   32        1.639   3.304   0.025   4.968
   33        1.631   3.301   0.019   4.951
   34        1.631   3.301   0.019   4.951
   35        1.631   3.301   0.019   4.951
   36        1.631   3.301   0.019   4.951
   37        1.631   3.301   0.019   4.951
   38        1.631   3.301   0.019   4.951
   39        1.631   3.301   0.019   4.951
   40        1.631   3.301   0.019   4.951
--------------------------------------------------
tot         66.458 119.648  81.213 267.318


 total amount of memory used by VASP MPI-rank0    58943. kBytes
=======================================================================

   base      :      30000. kBytes
   nonlr-proj:       6571. kBytes
   fftplans  :       8423. kBytes
   grid      :       7465. kBytes
   one-center:         77. kBytes
   wavefun   :       6407. kBytes

  
  
 General timing and accounting informations for this job:
 ========================================================
  
                  Total CPU time used (sec):      395.769
                            User time (sec):      392.033
                          System time (sec):        3.736
                         Elapsed time (sec):      396.959
  
                   Maximum memory used (kb):      127968.
                   Average memory used (kb):           0.
  
                          Minor page faults:       273159
                          Major page faults:            0
                 Voluntary context switches:         1835
