PROCAR new format
# of k-points:    6         # of bands:  216         # of ions:   40

 k-point     1 :    0.00000000 0.00000000 0.00000000     weight = 0.12500000

band     1 # energy  -20.44628682 # occ.  2.00000000

ion      s      p      d    tot
    1  0.105  0.000  0.000  0.105
    2  0.103  0.000  0.000  0.104
    3  0.104  0.000  0.000  0.105
    4  0.103  0.000  0.000  0.103
    5  0.104  0.000  0.000  0.105
    6  0.103  0.000  0.000  0.103
    7  0.105  0.000  0.000  0.105
    8  0.103  0.000  0.000  0.104
    9  0.000  0.000  0.000  0.000
   10  0.000  0.000  0.000  0.000
   11  0.000  0.000  0.000  0.000
   12  0.000  0.000  0.000  0.000
   13  0.000  0.000  0.000  0.000
   14  0.000  0.000  0.000  0.000
   15  0.000  0.000  0.000  0.000
   16  0.000  0.000  0.000  0.000
   17  0.001  0.000  0.000  0.002
   18  0.001  0.000  0.000  0.002
   19  0.001  0.000  0.000  0.002
   20  0.001  0.000  0.000  0.002
   21  0.001  0.000  0.000  0.002
   22  0.001  0.000  0.000  0.002
   23  0.001  0.000  0.000  0.002
   24  0.001  0.000  0.000  0.002
   25  0.002  0.001  0.000  0.003
   26  0.002  0.001  0.000  0.003
   27  0.002  0.001  0.000  0.003
   28  0.002  0.001  0.000  0.003
   29  0.002  0.001  0.000  0.003
   30  0.002  0.001  0.000  0.003
   31  0.002  0.001  0.000  0.003
   32  0.002  0.001  0.000  0.003
   33  0.001  0.000  0.000  0.002
   34  0.001  0.000  0.000  0.002
   35  0.001  0.000  0.000  0.002
   36  0.001  0.000  0.000  0.002
   37  0.001  0.000  0.000  0.002
   38  0.001  0.000  0.000  0.002
   39  0.001  0.000  0.000  0.002
   40  0.001  0.000  0.000  0.002
tot    0.873  0.010  0.002  0.885

band     2 # energy  -20.44152904 # occ.  2.00000000

ion      s      p      d    tot
    1  0.104  0.000  0.000  0.104
    2  0.105  0.000  0.000  0.105
    3  0.103  0.000  0.000  0.104
    4  0.104  0.000  0.000  0.105
    5  0.103  0.000  0.000  0.104
    6  0.104  0.000  0.000  0.105
    7  0.104  0.000  0.000  0.104
    8  0.105  0.000  0.000  0.105
    9  0.000  0.000  0.000  0.000
   10  0.000  0.000  0.000  0.000
   11  0.000  0.000  0.000  0.000
   12  0.000  0.000  0.000  0.000
   13  0.000  0.000  0.000  0.000
   14  0.000  0.000  0.000  0.000
   15  0.000  0.000  0.000  0.000
   16  0.000  0.000  0.000  0.000
   17  0.001  0.000  0.000  0.002
   18  0.001  0.000  0.000  0.002
   19  0.001  0.000  0.000  0.002
   20  0.001  0.000  0.000  0.002
   21  0.001  0.000  0.000  0.002
   22  0.001  0.000  0.000  0.002
   23  0.001  0.000  0.000  0.002
   24  0.001  0.000  0.000  0.002
   25  0.002  0.001  0.000  0.003
   26  0.002  0.001  0.000  0.003
   27  0.002  0.001  0.000  0.003
   28  0.002  0.001  0.000  0.003
   29  0.002  0.001  0.000  0.003
   30  0.002  0.001  0.000  0.003
   31  0.002  0.001  0.000  0.003
   32  0.002  0.001  0.000  0.003
   33  0.001  0.000  0.000  0.002
   34  0.001  0.000  0.000  0.002
   35  0.001  0.000  0.000  0.002
   36  0.001  0.000  0.000  0.002
   37  0.001  0.000  0.000  0.002
   38  0.001  0.000  0.000  0.002
   39  0.001  0.000  0.000  0.002
   40  0.001  0.000  0.000  0.002
tot    0.873  0.011  0.002  0.886

band     3 # energy  -20.44028938 # occ.  2.00000000

ion      s      p      d    tot
    1  0.209  0.000  0.000  0.210
    2  0.207  0.000  0.000  0.207
    3  0.000  0.000  0.000  0.000
    4  0.000  0.000  0.000  0.000
    5  0.000  0.000  0.000  0.000
    6  0.000  0.000  0.000  0.000
    7  0.209  0.000  0.000  0.210
    8  0.207  0.000  0.000  0.207
    9  0.000  0.000  0.000  0.000
   10  0.000  0.000  0.000  0.000
   11  0.000  0.000  0.000  0.000
   12  0.000  0.000  0.000  0.000
   13  0.000  0.000  0.000  0.000
   14  0.000  0.000  0.000  0.000
   15  0.000  0.000  0.000  0.000
   16  0.000  0.000  0.000  0.000
   17  0.000  0.000  0.000  0.000
   18  0.000  0.000  0.000  0.000
   19  0.000  0.000  0.000  0.000
   20  0.000  0.000  0.000  0.000
   21  0.000  0.000  0.000  0.000
   22  0.000  0.000  0.000  0.000
   23  0.000  0.000  0.000  0.000
   24  0.000  0.000  0.000  0.000
   25  0.000  0.000  0.000  0.000
   26  0.000  0.000  0.000  0.000
   27  0.004  0.001  0.000  0.006
   28  0.004  0.001  0.000  0.006
   29  0.004  0.001  0.000  0.006
   30  0.004  0.001  0.000  0.006
   31  0.000  0.000  0.000  0.000
   32  0.000  0.000  0.000  0.000
   33  0.003  0.001  0.000  0.004
   34  0.003  0.001  0.000  0.004
   35  0.003  0.001  0.000  0.004
   36  0.003  0.001  0.000  0.004
   37  0.003  0.001  0.000  0.004
   38  0.003  0.001  0.000  0.004
   39  0.003  0.001  0.000  0.004
   40  0.003  0.001  0.000  0.004
tot    0.873  0.011  0.002  0.886

band     4 # energy  -20.44027821 # occ.  2.00000000

ion      s      p      d    tot
    1  0.000  0.000  0.000  0.000
    2  0.000  0.000  0.000  0.000
    3  0.210  0.000  0.000  0.210
    4  0.207  0.000  0.000  0.207
    5  0.210  0.000  0.000  0.210
    6  0.207  0.000  0.000  0.207
    7  0.000  0.000  0.000  0.000
    8  0.000  0.000  0.000  0.000
    9  0.000  0.000  0.000  0.000
   10  0.000  0.000  0.000  0.000
   11  0.000  0.000  0.000  0.000
   12  0.000  0.000  0.000  0.000
   13  0.000  0.000  0.000  0.000
   14  0.000  0.000  0.000  0.000
   15  0.000  0.000  0.000  0.000
   16  0.000  0.000  0.000  0.000
   17  0.003  0.001  0.000  0.004
   18  0.003  0.001  0.000  0.004
   19  0.003  0.001  0.000  0.004
   20  0.003  0.001  0.000  0.004
   21  0.003  0.001  0.000  0.004
   22  0.003  0.001  0.000  0.004
   23  0.003  0.001  0.000  0.004
   24  0.003  0.001  0.000  0.004
   25  0.004  0.001  0.000  0.006
   26  0.004  0.001  0.000  0.006
   27  0.000  0.000  0.000  0.000
   28  0.000  0.000  0.000  0.000
   29  0.000  0.000  0.000  0.000
   30  0.000  0.000  0.000  0.000
   31  0.004  0.001  0.000  0.006
   32  0.004  0.001  0.000  0.006
   33  0.000  0.000  0.000  0.000
   34  0.000  0.000  0.000  0.000
   35  0.000  0.000  0.000  0.000
   36  0.000  0.000  0.000  0.000
   37  0.000  0.000  0.000  0.000
   38  0.000  0.000  0.000  0.000
   39  0.000  0.000  0.000  0.000
   40  0.000  0.000  0.000  0.000
tot    0.873  0.011  0.002  0.886

band     5 # energy  -20.43616534 # occ.  2.00000000

ion      s      p      d    tot
    1  0.207  0.000  0.000  0.208
    2  0.210  0.000  0.000  0.210
    3  0.000  0.000  0.000  0.000
    4  0.000  0.000  0.000  0.000
    5  0.000  0.000  0.000  0.000
    6  0.000  0.000  0.000  0.000
    7  0.207  0.000  0.000  0.208
    8  0.210  0.000  0.000  0.210
    9  0.000  0.000  0.000  0.000
   10  0.000  0.000  0.000  0.000
   11  0.000  0.000  0.000  0.000
   12  0.000  0.000  0.000  0.000
   13  0.000  0.000  0.000  0.000
   14  0.000  0.000  0.000  0.000
   15  0.000  0.000  0.000  0.000
   16  0.000  0.000  0.000  0.000
   17  0.000  0.000  0.000  0.000
   18  0.000  0.000  0.000  0.000
   19  0.000  0.000  0.000  0.000
   20  0.000  0.000  0.000  0.000
   21  0.000  0.000  0.000  0.000
   22  0.000  0.000  0.000  0.000
   23  0.000  0.000  0.000  0.000
   24  0.000  0.000  0.000  0.000
   25  0.000  0.000  0.000  0.000
   26  0.000  0.000  0.000  0.000
   27  0.004  0.001  0.000  0.006
   28  0.004  0.001  0.000  0.006
   29  0.004  0.001  0.000  0.006
   30  0.004  0.001  0.000  0.006
   31  0.000  0.000  0.000  0.000
   32  0.000  0.000  0.000  0.000
   33  0.003  0.001  0.000  0.004
   34  0.003  0.001  0.000  0.004
   35  0.003  0.001  0.000  0.004
   36  0.003  0.001  0.000  0.004
   37  0.003  0.001  0.000  0.004
   38  0.003  0.001  0.000  0.004
   39  0.003  0.001  0.000  0.004
   40  0.003  0.001  0.000  0.004
tot    0.874  0.011  0.002  0.887

band     6 # energy  -20.43615410 # occ.  2.00000000

ion      s      p      d    tot
    1  0.000  0.000  0.000  0.000
    2  0.000  0.000  0.000  0.000
    3  0.207  0.000  0.000  0.207
    4  0.210  0.000  0.000  0.210
    5  0.207  0.000  0.000  0.207
    6  0.210  0.000  0.000  0.210
    7  0.000  0.000  0.000  0.000
    8  0.000  0.000  0.000  0.000
    9  0.000  0.000  0.000  0.000
   10  0.000  0.000  0.000  0.000
   11  0.000  0.000  0.000  0.000
   12  0.000  0.000  0.000  0.000
   13  0.000  0.000  0.000  0.000
   14  0.000  0.000  0.000  0.000
   15  0.000  0.000  0.000  0.000
   16  0.000  0.000  0.000  0.000
   17  0.003  0.001  0.000  0.004
   18  0.003  0.001  0.000  0.004
   19  0.003  0.001  0.000  0.004
   20  0.003  0.001  0.000  0.004
   21  0.003  0.001  0.000  0.004
   22  0.003  0.001  0.000  0.004
   23  0.003  0.001  0.000  0.004
   24  0.003  0.001  0.000  0.004
   25  0.004  0.001  0.000  0.006
   26  0.004  0.001  0.000  0.006
   27  0.000  0.000  0.000  0.000
   28  0.000  0.000  0.000  0.000
   29  0.000  0.000  0.000  0.000
   30  0.000  0.000  0.000  0.000
   31  0.004  0.001  0.000  0.006
   32  0.004  0.001  0.000  0.006
   33  0.000  0.000  0.000  0.000
   34  0.000  0.000  0.000  0.000
   35  0.000  0.000  0.000  0.000
   36  0.000  0.000  0.000  0.000
   37  0.000  0.000  0.000  0.000
   38  0.000  0.000  0.000  0.000
   39  0.000  0.000  0.000  0.000
   40  0.000  0.000  0.000  0.000
tot    0.874  0.011  0.002  0.887

band     7 # energy  -20.43492241 # occ.  2.00000000

ion      s      p      d    tot
    1  0.105  0.000  0.000  0.105
    2  0.104  0.000  0.000  0.104
    3  0.105  0.000  0.000  0.105
    4  0.104  0.000  0.000  0.104
    5  0.105  0.000  0.000  0.105
    6  0.104  0.000  0.000  0.104
    7  0.105  0.000  0.000  0.105
    8  0.104  0.000  0.000  0.104
    9  0.000  0.000  0.000  0.000
   10  0.000  0.000  0.000  0.000
   11  0.000  0.000  0.000  0.000
   12  0.000  0.000  0.000  0.000
   13  0.000  0.000  0.000  0.000
   14  0.000  0.000  0.000  0.000
   15  0.000  0.000  0.000  0.000
   16  0.000  0.000  0.000  0.000
   17  0.001  0.000  0.000  0.002
   18  0.001  0.000  0.000  0.002
   19  0.001  0.000  0.000  0.002
   20  0.001  0.000  0.000  0.002
   21  0.001  0.000  0.000  0.002
   22  0.001  0.000  0.000  0.002
   23  0.001  0.000  0.000  0.002
   24  0.001  0.000  0.000  0.002
   25  0.002  0.001  0.000  0.003
   26  0.002  0.001  0.000  0.003
   27  0.002  0.001  0.000  0.003
   28  0.002  0.001  0.000  0.003
   29  0.002  0.001  0.000  0.003
   30  0.002  0.001  0.000  0.003
   31  0.002  0.001  0.000  0.003
   32  0.002  0.001  0.000  0.003
   33  0.001  0.000  0.000  0.002
   34  0.001  0.000  0.000  0.002
   35  0.001  0.000  0.000  0.002
   36  0.001  0.000  0.000  0.002
   37  0.001  0.000  0.000  0.002
   38  0.001  0.000  0.000  0.002
   39  0.001  0.000  0.000  0.002
   40  0.001  0.000  0.000  0.002
tot    0.874  0.011  0.002  0.887

band     8 # energy  -20.43028354 # occ.  2.00000000

ion      s      p      d    tot
    1  0.104  0.000  0.000  0.104
    2  0.105  0.000  0.000  0.105
    3  0.104  0.000  0.000  0.104
    4  0.105  0.000  0.000  0.105
    5  0.104  0.000  0.000  0.104
    6  0.105  0.000  0.000  0.105
    7  0.104  0.000  0.000  0.104
    8  0.105  0.000  0.000  0.105
    9  0.000  0.000  0.000  0.000
   10  0.000  0.000  0.000  0.000
   11  0.000  0.000  0.000  0.000
   12  0.000  0.000  0.000  0.000
   13  0.000  0.000  0.000  0.000
   14  0.000  0.000  0.000  0.000
   15  0.000  0.000  0.000  0.000
   16  0.000  0.000  0.000  0.000
   17  0.001  0.000  0.000  0.002
   18  0.001  0.000  0.000  0.002
   19  0.001  0.000  0.000  0.002
   20  0.001  0.000  0.000  0.002
   21  0.001  0.000  0.000  0.002
   22  0.001  0.000  0.000  0.002
   23  0.001  0.000  0.000  0.002
   24  0.001  0.000  0.000  0.002
   25  0.002  0.001  0.000  0.003
   26  0.002  0.001  0.000  0.003
   27  0.002  0.001  0.000  0.003
   28  0.002  0.001  0.000  0.003
   29  0.002  0.001  0.000  0.003
   30  0.002  0.001  0.000  0.003
   31  0.002  0.001  0.000  0.003
   32  0.002  0.001  0.000  0.003
   33  0.001  0.000  0.000  0.002
   34  0.001  0.000  0.000  0.002
   35  0.001  0.000  0.000  0.002
   36  0.001  0.000  0.000  0.002
   37  0.001  0.000  0.000  0.002
   38  0.001  0.000  0.000  0.002
   39  0.001  0.000  0.000  0.002
   40  0.001  0.000  0.000  0.002
tot    0.875  0.011  0.002  0.888

band     9 # energy  -17.28990616 # occ.  2.00000000

ion      s      p      d    tot
    1  0.000  0.000  0.000  0.000
    2  0.000  0.000  0.000  0.000
    3  0.000  0.000  0.000  0.000
    4  0.000  0.000  0.000  0.000
    5  0.000  0.000  0.000  0.000
    6  0.000  0.000  0.000  0.000
    7  0.000  0.000  0.000  0.000
    8  0.000  0.000  0.000  0.000
    9  0.000  0.000  0.121  0.121
   10  0.000  0.000  0.121  0.121
   11  0.000  0.000  0.121  0.121
   12  0.000  0.000  0.121  0.121
   13  0.000  0.000  0.121  0.121
   14  0.000  0.000  0.121  0.121
   15  0.000  0.000  0.121  0.121
   16  0.000  0.000  0.121  0.121
   17  0.000  0.000  0.000  0.000
   18  0.000  0.000  0.000  0.000
   19  0.000  0.000  0.000  0.000
   20  0.000  0.000  0.000  0.000
   21  0.000  0.000  0.000  0.000
   22  0.000  0.000  0.000  0.000
   23  0.000  0.000  0.000  0.000
   24  0.000  0.000  0.000  0.000
   25  0.000  0.000  0.000  0.000
   26  0.000  0.000  0.000  0.000
   27  0.000  0.000  0.000  0.000
   28  0.000  0.000  0.000  0.000
   29  0.000  0.000  0.000  0.000
   30  0.000  0.000  0.000  0.000
   31  0.000  0.000  0.000  0.000
   32  0.000  0.000  0.000  0.000
   33  0.000  0.000  0.000  0.000
   34  0.000  0.000  0.000  0.000
   35  0.000  0.000  0.000  0.000
   36  0.000  0.000  0.000  0.000
   37  0.000  0.000  0.000  0.000
   38  0.000  0.000  0.000  0.000
   39  0.000  0.000  0.000  0.000
   40  0.000  0.000  0.000  0.000
tot    0.004  0.000  0.971  0.976

band    10 # energy  -17.28819949 # occ.  2.00000000

ion      s      p      d    tot
    1  0.000  0.000  0.000  0.000
    2  0.000  0.000  0.000  0.000
    3  0.000  0.000  0.000  0.000
    4  0.000  0.000  0.000  0.000
    5  0.000  0.000  0.000  0.000
    6  0.000  0.000  0.000  0.000
    7  0.000  0.000  0.000  0.000
    8  0.000  0.000  0.000  0.000
    9  0.000  0.000  0.121  0.121
   10  0.000  0.000  0.121  0.121
   11  0.000  0.000  0.121  0.121
   12  0.000  0.000  0.121  0.121
   13  0.000  0.000  0.121  0.121
   14  0.000  0.000  0.121  0.121
   15  0.000  0.000  0.121  0.121
   16  0.000  0.000  0.121  0.121
   17  0.000  0.000  0.000  0.000
   18  0.000  0.000  0.000  0.000
   19  0.000  0.000  0.000  0.000
   20  0.000  0.000  0.000  0.000
   21  0.000  0.000  0.000  0.000
   22  0.000  0.000  0.000  0.000
   23  0.000  0.000  0.000  0.000
   24  0.000  0.000  0.000  0.000
   25  0.000  0.000  0.000  0.000
   26  0.000  0.000  0.000  0.000
   27  0.000  0.000  0.000  0.000
   28  0.000  0.000  0.000  0.000
   29  0.000  0.000  0.000  0.000
   30  0.000  0.000  0.000  0.000
   31  0.000  0.000  0.000  0.000
   32  0.000  0.000  0.000  0.000
   33  0.000  0.000  0.000  0.000
   34  0.000  0.000  0.000  0.000
   35  0.000  0.000  0.000  0.000
   36  0.000  0.000  0.000  0.000
   37  0.000  0.000  0.000  0.000
   38  0.000  0.000  0.000  0.000
   39  0.000  0.000  0.000  0.000
   40  0.000  0.000  0.000  0.000
tot    0.004  0.000  0.972  0.976

band    11 # energy  -17.28643964 # occ.  2.00000000

ion      s      p      d    tot
    1  0.000  0.000  0.000  0.000
    2  0.000  0.000  0.000  0.000
    3  0.000  0.000  0.000  0.000
    4  0.000  0.000  0.000  0.000
    5  0.000  0.000  0.000  0.000
    6  0.000  0.000  0.000  0.000
    7  0.000  0.000  0.000  0.000
    8  0.000  0.000  0.000  0.000
    9  0.000  0.000  0.121  0.121
   10  0.000  0.000  0.121  0.121
   11  0.000  0.000  0.121  0.121
   12  0.000  0.000  0.121  0.121
   13  0.000  0.000  0.121  0.121
   14  0.000  0.000  0.121  0.121
   15  0.000  0.000  0.121  0.121
   16  0.000  0.000  0.121  0.121
   17  0.000  0.000  0.000  0.000
   18  0.000  0.000  0.000  0.000
   19  0.000  0.000  0.000  0.000
   20  0.000  0.000  0.000  0.000
   21  0.000  0.000  0.000  0.000
   22  0.000  0.000  0.000  0.000
   23  0.000  0.000  0.000  0.000
   24  0.000  0.000  0.000  0.000
   25  0.000  0.000  0.000  0.000
   26  0.000  0.000  0.000  0.000
   27  0.000  0.000  0.000  0.000
   28  0.000  0.000  0.000  0.000
   29  0.000  0.000  0.000  0.000
   30  0.000  0.000  0.000  0.000
   31  0.000  0.000  0.000  0.000
   32  0.000  0.000  0.000  0.000
   33  0.000  0.000  0.000  0.000
   34  0.000  0.000  0.000  0.000
   35  0.000  0.000  0.000  0.000
   36  0.000  0.000  0.000  0.000
   37  0.000  0.000  0.000  0.000
   38  0.000  0.000  0.000  0.000
   39  0.000  0.000  0.000  0.000
   40  0.000  0.000  0.000  0.000
tot    0.004  0.000  0.972  0.976

band    12 # energy  -17.28557077 # occ.  2.00000000

ion      s      p      d    tot
    1  0.000  0.000  0.000  0.000
    2  0.000  0.000  0.000  0.000
    3  0.000  0.000  0.000  0.000
    4  0.000  0.000  0.000  0.000
    5  0.000  0.000  0.000  0.000
    6  0.000  0.000  0.000  0.000
    7  0.000  0.000  0.000  0.000
    8  0.000  0.000  0.000  0.000
    9  0.000  0.000  0.021  0.021
   10  0.000  0.000  0.021  0.021
   11  0.000  0.000  0.222  0.222
   12  0.000  0.000  0.222  0.222
   13  0.000  0.000  0.222  0.222
   14  0.000  0.000  0.222  0.222
   15  0.000  0.000  0.021  0.021
   16  0.000  0.000  0.021  0.021
   17  0.000  0.000  0.000  0.000
   18  0.000  0.000  0.000  0.000
   19  0.000  0.000  0.000  0.000
   20  0.000  0.000  0.000  0.000
   21  0.000  0.000  0.000  0.000
   22  0.000  0.000  0.000  0.000
   23  0.000  0.000  0.000  0.000
   24  0.000  0.000  0.000  0.000
   25  0.000  0.000  0.000  0.000
   26  0.000  0.000  0.000  0.000
   27  0.000  0.000  0.000  0.000
   28  0.000  0.000  0.000  0.000
   29  0.000  0.000  0.000  0.000
   30  0.000  0.000  0.000  0.000
   31  0.000  0.000  0.000  0.000
   32  0.000  0.000  0.000  0.000
   33  0.000  0.000  0.000  0.000
   34  0.000  0.000  0.000  0.000
   35  0.000  0.000  0.000  0.000
   36  0.000  0.000  0.000  0.000
   37  0.000  0.000  0.000  0.000
   38  0.000  0.000  0.000  0.000
   39  0.000  0.000  0.000  0.000
   40  0.000  0.000  0.000  0.000
tot    0.003  0.000  0.974  0.977

band    13 # energy  -17.28557076 # occ.  2.00000000

ion      s      p      d    tot
    1  0.000  0.000  0.000  0.000
    2  0.000  0.000  0.000  0.000
    3  0.000  0.000  0.000  0.000
    4  0.000  0.000  0.000  0.000
    5  0.000  0.000  0.000  0.000
    6  0.000  0.000  0.000  0.000
    7  0.000  0.000  0.000  0.000
    8  0.000  0.000  0.000  0.000
    9  0.000  0.000  0.222  0.222
   10  0.000  0.000  0.222  0.222
   11  0.000  0.000  0.021  0.021
   12  0.000  0.000  0.021  0.021
   13  0.000  0.000  0.021  0.021
   14  0.000  0.000  0.021  0.021
   15  0.000  0.000  0.222  0.222
   16  0.000  0.000  0.222  0.222
   17  0.000  0.000  0.000  0.000
   18  0.000  0.000  0.000  0.000
   19  0.000  0.000  0.000  0.000
   20  0.000  0.000  0.000  0.000
   21  0.000  0.000  0.000  0.000
   22  0.000  0.000  0.000  0.000
   23  0.000  0.000  0.000  0.000
   24  0.000  0.000  0.000  0.000
   25  0.000  0.000  0.000  0.000
   26  0.000  0.000  0.000  0.000
   27  0.000  0.000  0.000  0.000
   28  0.000  0.000  0.000  0.000
   29  0.000  0.000  0.000  0.000
   30  0.000  0.000  0.000  0.000
   31  0.000  0.000  0.000  0.000
   32  0.000  0.000  0.000  0.000
   33  0.000  0.000  0.000  0.000
   34  0.000  0.000  0.000  0.000
   35  0.000  0.000  0.000  0.000
   36  0.000  0.000  0.000  0.000
   37  0.000  0.000  0.000  0.000
   38  0.000  0.000  0.000  0.000
   39  0.000  0.000  0.000  0.000
   40  0.000  0.000  0.000  0.000
tot    0.003  0.000  0.974  0.977

band    14 # energy  -17.28400165 # occ.  2.00000000

ion      s      p      d    tot
    1  0.000  0.000  0.000  0.000
    2  0.000  0.000  0.000  0.000
    3  0.000  0.000  0.000  0.000
    4  0.000  0.000  0.000  0.000
    5  0.000  0.000  0.000  0.000
    6  0.000  0.000  0.000  0.000
    7  0.000  0.000  0.000  0.000
    8  0.000  0.000  0.000  0.000
    9  0.000  0.000  0.195  0.195
   10  0.000  0.000  0.195  0.195
   11  0.000  0.000  0.048  0.048
   12  0.000  0.000  0.048  0.048
   13  0.000  0.000  0.048  0.048
   14  0.000  0.000  0.048  0.048
   15  0.000  0.000  0.195  0.195
   16  0.000  0.000  0.195  0.195
   17  0.000  0.000  0.000  0.000
   18  0.000  0.000  0.000  0.000
   19  0.000  0.000  0.000  0.000
   20  0.000  0.000  0.000  0.000
   21  0.000  0.000  0.000  0.000
   22  0.000  0.000  0.000  0.000
   23  0.000  0.000  0.000  0.000
   24  0.000  0.000  0.000  0.000
   25  0.000  0.000  0.000  0.000
   26  0.000  0.000  0.000  0.000
   27  0.000  0.000  0.000  0.000
   28  0.000  0.000  0.000  0.000
   29  0.000  0.000  0.000  0.000
   30  0.000  0.000  0.000  0.000
   31  0.000  0.000  0.000  0.000
   32  0.000  0.000  0.000  0.000
   33  0.000  0.000  0.000  0.000
   34  0.000  0.000  0.000  0.000
   35  0.000  0.000  0.000  0.000
   36  0.000  0.000  0.000  0.000
   37  0.000  0.000  0.000  0.000
   38  0.000  0.000  0.000  0.000
   39  0.000  0.000  0.000  0.000
   40  0.000  0.000  0.000  0.000
tot    0.002  0.000  0.974  0.977

band    15 # energy  -17.28400165 # occ.  2.00000000

ion      s      p      d    tot
    1  0.000  0.000  0.000  0.000
    2  0.000  0.000  0.000  0.000
    3  0.000  0.000  0.000  0.000
    4  0.000  0.000  0.000  0.000
    5  0.000  0.000  0.000  0.000
    6  0.000  0.000  0.000  0.000
    7  0.000  0.000  0.000  0.000
    8  0.000  0.000  0.000  0.000
    9  0.000  0.000  0.048  0.048
   10  0.000  0.000  0.048  0.048
   11  0.000  0.000  0.195  0.195
   12  0.000  0.000  0.195  0.195
   13  0.000  0.000  0.195  0.195
   14  0.000  0.000  0.195  0.195
   15  0.000  0.000  0.048  0.048
   16  0.000  0.000  0.048  0.048
   17  0.000  0.000  0.000  0.000
   18  0.000  0.000  0.000  0.000
   19  0.000  0.000  0.000  0.000
   20  0.000  0.000  0.000  0.000
   21  0.000  0.000  0.000  0.000
   22  0.000  0.000  0.000  0.000
   23  0.000  0.000  0.000  0.000
   24  0.000  0.000  0.000  0.000
   25  0.000  0.000  0.000  0.000
   26  0.000  0.000  0.000  0.000
   27  0.000  0.000  0.000  0.000
   28  0.000  0.000  0.000  0.000
   29  0.000  0.000  0.000  0.000
   30  0.000  0.000  0.000  0.000
   31  0.000  0.000  0.000  0.000
   32  0.000  0.000  0.000  0.000
   33  0.000  0.000  0.000  0.000
   34  0.000  0.000  0.000  0.000
   35  0.000  0.000  0.000  0.000
   36  0.000  0.000  0.000  0.000
   37  0.000  0.000  0.000  0.000
   38  0.000  0.000  0.000  0.000
   39  0.000  0.000  0.000  0.000
   40  0.000  0.000  0.000  0.000
tot    0.002  0.000  0.974  0.977

band    16 # energy  -17.27997389 # occ.  2.00000000

ion      s      p      d    tot
    1  0.000  0.000  0.000  0.000
    2  0.000  0.000  0.000  0.000
    3  0.000  0.000  0.000  0.000
    4  0.000  0.000  0.000  0.000
    5  0.000  0.000  0.000  0.000
    6  0.000  0.000  0.000  0.000
    7  0.000  0.000  0.000  0.000
    8  0.000  0.000  0.000  0.000
    9  0.000  0.000  0.122  0.122
   10  0.000  0.000  0.122  0.122
   11  0.000  0.000  0.122  0.122
   12  0.000  0.000  0.122  0.122
   13  0.000  0.000  0.122  0.122
   14  0.000  0.000  0.122  0.122
   15  0.000  0.000  0.122  0.122
   16  0.000  0.000  0.122  0.122
   17  0.000  0.000  0.000  0.000
   18  0.000  0.000  0.000  0.000
   19  0.000  0.000  0.000  0.000
   20  0.000  0.000  0.000  0.000
   21  0.000  0.000  0.000  0.000
   22  0.000  0.000  0.000  0.000
   23  0.000  0.000  0.000  0.000
   24  0.000  0.000  0.000  0.000
   25  0.000  0.000  0.000  0.000
   26  0.000  0.000  0.000  0.000
   27  0.000  0.000  0.000  0.000
   28  0.000  0.000  0.000  0.000
   29  0.000  0.000  0.000  0.000
   30  0.000  0.000  0.000  0.000
   31  0.000  0.000  0.000  0.000
   32  0.000  0.000  0.000  0.000
   33  0.000  0.000  0.000  0.000
   34  0.000  0.000  0.000  0.000
   35  0.000  0.000  0.000  0.000
   36  0.000  0.000  0.000  0.000
   37  0.000  0.000  0.000  0.000
   38  0.000  0.000  0.000  0.000
   39  0.000  0.000  0.000  0.000
   40  0.000  0.000  0.000  0.000
tot    0.001  0.000  0.977  0.978

band    17 # energy  -17.27525848 # occ.  2.00000000

ion      s      p      d    tot
    1  0.000  0.000  0.000  0.000
    2  0.000  0.000  0.000  0.000
    3  0.000  0.000  0.000  0.000
    4  0.000  0.000  0.000  0.000
    5  0.000  0.000  0.000  0.000
    6  0.000  0.000  0.000  0.000
    7  0.000  0.000  0.000  0.000
    8  0.000  0.000  0.000  0.000
    9  0.000  0.000  0.122  0.122
   10  0.000  0.000  0.122  0.122
   11  0.000  0.000  0.122  0.122
   12  0.000  0.000  0.122  0.122
   13  0.000  0.000  0.122  0.122
   14  0.000  0.000  0.122  0.122
   15  0.000  0.000  0.122  0.122
   16  0.000  0.000  0.122  0.122
   17  0.000  0.000  0.000  0.000
   18  0.000  0.000  0.000  0.000
   19  0.000  0.000  0.000  0.000
   20  0.000  0.000  0.000  0.000
   21  0.000  0.000  0.000  0.000
   22  0.000  0.000  0.000  0.000
   23  0.000  0.000  0.000  0.000
   24  0.000  0.000  0.000  0.000
   25  0.000  0.000  0.000  0.000
   26  0.000  0.000  0.000  0.000
   27  0.000  0.000  0.000  0.000
   28  0.000  0.000  0.000  0.000
   29  0.000  0.000  0.000  0.000
   30  0.000  0.000  0.000  0.000
   31  0.000  0.000  0.000  0.000
   32  0.000  0.000  0.000  0.000
   33  0.000  0.000  0.000  0.000
   34  0.000  0.000  0.000  0.000
   35  0.000  0.000  0.000  0.000
   36  0.000  0.000  0.000  0.000
   37  0.000  0.000  0.000  0.000
   38  0.000  0.000  0.000  0.000
   39  0.000  0.000  0.000  0.000
   40  0.000  0.000  0.000  0.000
tot    0.002  0.000  0.975  0.977

band    18 # energy  -17.27477340 # occ.  2.00000000

ion      s      p      d    tot
    1  0.000  0.000  0.000  0.000
    2  0.000  0.000  0.000  0.000
    3  0.000  0.000  0.000  0.000
    4  0.000  0.000  0.000  0.000
    5  0.000  0.000  0.000  0.000
    6  0.000  0.000  0.000  0.000
    7  0.000  0.000  0.000  0.000
    8  0.000  0.000  0.000  0.000
    9  0.000  0.000  0.174  0.174
   10  0.000  0.000  0.174  0.174
   11  0.000  0.000  0.069  0.069
   12  0.000  0.000  0.069  0.069
   13  0.000  0.000  0.069  0.069
   14  0.000  0.000  0.069  0.069
   15  0.000  0.000  0.174  0.174
   16  0.000  0.000  0.174  0.174
   17  0.000  0.000  0.000  0.000
   18  0.000  0.000  0.000  0.000
   19  0.000  0.000  0.000  0.000
   20  0.000  0.000  0.000  0.000
   21  0.000  0.000  0.000  0.000
   22  0.000  0.000  0.000  0.000
   23  0.000  0.000  0.000  0.000
   24  0.000  0.000  0.000  0.000
   25  0.000  0.000  0.000  0.000
   26  0.000  0.000  0.000  0.000
   27  0.000  0.000  0.000  0.000
   28  0.000  0.000  0.000  0.000
   29  0.000  0.000  0.000  0.000
   30  0.000  0.000  0.000  0.000
   31  0.000  0.000  0.000  0.000
   32  0.000  0.000  0.000  0.000
   33  0.000  0.000  0.000  0.000
   34  0.000  0.000  0.000  0.000
   35  0.000  0.000  0.000  0.000
   36  0.000  0.000  0.000  0.000
   37  0.000  0.000  0.000  0.000
   38  0.000  0.000  0.000  0.000
   39  0.000  0.000  0.000  0.000
   40  0.000  0.000  0.000  0.000
tot    0.002  0.000  0.975  0.977

band    19 # energy  -17.27477340 # occ.  2.00000000

ion      s      p      d    tot
    1  0.000  0.000  0.000  0.000
    2  0.000  0.000  0.000  0.000
    3  0.000  0.000  0.000  0.000
    4  0.000  0.000  0.000  0.000
    5  0.000  0.000  0.000  0.000
    6  0.000  0.000  0.000  0.000
    7  0.000  0.000  0.000  0.000
    8  0.000  0.000  0.000  0.000
    9  0.000  0.000  0.069  0.069
   10  0.000  0.000  0.069  0.069
   11  0.000  0.000  0.174  0.174
   12  0.000  0.000  0.174  0.174
   13  0.000  0.000  0.174  0.174
   14  0.000  0.000  0.174  0.174
   15  0.000  0.000  0.069  0.069
   16  0.000  0.000  0.069  0.069
   17  0.000  0.000  0.000  0.000
   18  0.000  0.000  0.000  0.000
   19  0.000  0.000  0.000  0.000
   20  0.000  0.000  0.000  0.000
   21  0.000  0.000  0.000  0.000
   22  0.000  0.000  0.000  0.000
   23  0.000  0.000  0.000  0.000
   24  0.000  0.000  0.000  0.000
   25  0.000  0.000  0.000  0.000
   26  0.000  0.000  0.000  0.000
   27  0.000  0.000  0.000  0.000
   28  0.000  0.000  0.000  0.000
   29  0.000  0.000  0.000  0.000
   30  0.000  0.000  0.000  0.000
   31  0.000  0.000  0.000  0.000
   32  0.000  0.000  0.000  0.000
   33  0.000  0.000  0.000  0.000
   34  0.000  0.000  0.000  0.000
   35  0.000  0.000  0.000  0.000
   36  0.000  0.000  0.000  0.000
   37  0.000  0.000  0.000  0.000
   38  0.000  0.000  0.000  0.000
   39  0.000  0.000  0.000  0.000
   40  0.000  0.000  0.000  0.000
tot    0.002  0.000  0.975  0.977

band    20 # energy  -17.27256645 # occ.  2.00000000

ion      s      p      d    tot
    1  0.000  0.000  0.000  0.000
    2  0.000  0.000  0.000  0.000
    3  0.000  0.000  0.000  0.000
    4  0.000  0.000  0.000  0.000
    5  0.000  0.000  0.000  0.000
    6  0.000  0.000  0.000  0.000
    7  0.000  0.000  0.000  0.000
    8  0.000  0.000  0.000  0.000
    9  0.000  0.000  0.122  0.122
   10  0.000  0.000  0.122  0.122
   11  0.000  0.000  0.122  0.122
   12  0.000  0.000  0.122  0.122
   13  0.000  0.000  0.122  0.122
   14  0.000  0.000  0.122  0.122
   15  0.000  0.000  0.122  0.122
   16  0.000  0.000  0.122  0.122
   17  0.000  0.000  0.000  0.000
   18  0.000  0.000  0.000  0.000
   19  0.000  0.000  0.000  0.000
   20  0.000  0.000  0.000  0.000
   21  0.000  0.000  0.000  0.000
   22  0.000  0.000  0.000  0.000
   23  0.000  0.000  0.000  0.000
   24  0.000  0.000  0.000  0.000
   25  0.000  0.000  0.000  0.000
   26  0.000  0.000  0.000  0.000
   27  0.000  0.000  0.000  0.000
   28  0.000  0.000  0.000  0.000
   29  0.000  0.000  0.000  0.000
   30  0.000  0.000  0.000  0.000
   31  0.000  0.000  0.000  0.000
   32  0.000  0.000  0.000  0.000
   33  0.000  0.000  0.000  0.000
   34  0.000  0.000  0.000  0.000
   35  0.000  0.000  0.000  0.000
   36  0.000  0.000  0.000  0.000
   37  0.000  0.000  0.000  0.000
   38  0.000  0.000  0.000  0.000
   39  0.000  0.000  0.000  0.000
   40  0.000  0.000  0.000  0.000
tot    0.000  0.000  0.978  0.978

band    21 # energy  -17.27242597 # occ.  2.00000000

ion      s      p      d    tot
    1  0.000  0.000  0.000  0.000
    2  0.000  0.000  0.000  0.000
    3  0.000  0.000  0.000  0.000