<?xml version="1.0" encoding="ISO-8859-1"?>
<modeling>
 <generator>
  <i name="program" type="string">vasp </i>
  <i name="version" type="string">5.4.4.18Apr17-6-g9f103f2a35  </i>
  <i name="subversion" type="string">(build Jun 22 2020 09:27:21) complex            parallel </i>
  <i name="platform" type="string">tx2_gcc-7.3_libsci-18.07_cray-fftw-3.3.8 </i>
  <i name="date" type="string">2021 09 22 </i>
  <i name="time" type="string">08:51:59 </i>
 </generator>
 <incar>
  <i type="string" name="SYSTEM"> CsPbBr3 cubic bulk</i>
  <i type="string" name="PREC">accurate</i>
  <i type="string" name="ALGO"> Normal   ! Electronic minimisation algo</i>
  <i type="logical" name="ADDGRID"> T  </i>
  <i type="int" name="NELM">   200</i>
  <i type="int" name="IBRION">     2</i>
  <i name="EDIFF">      0.00000100</i>
  <i name="EDIFFG">     -0.01000000</i>
  <i type="int" name="NSW">     0</i>
  <i type="int" name="ISIF">     3</i>
  <i type="int" name="ISYM">     2</i>
  <i name="ENCUT">    300.00000000</i>
  <i name="POTIM">      0.50000000</i>
  <i type="string" name="LREAL"> AUTO</i>
  <i type="int" name="ISMEAR">     0</i>
  <i name="SIGMA">      0.01000000</i>
  <i name="PSTRESS">      0.00000000</i>
  <i type="logical" name="LWAVE"> F  </i>
  <i type="logical" name="LCHARG"> T  </i>
  <i type="logical" name="LVHAR"> T  </i>
  <i type="int" name="LORBIT">    10</i>
  <i type="logical" name="LASPH"> T  </i>
  <v type="int" name="KPOINT_BSE">    -1     0     0     0</v>
  <i type="int" name="NELM">   200</i>
  <i type="string" name="METAGGA"> SCAN       ! PBE exchange-correlation</i>
  <i type="logical" name="LASPH"> T  </i>
 </incar>
 <structure name="primitive_cell" >
  <crystal>
   <varray name="basis" >
    <v>       5.86767600      -5.86767600       0.00000000 </v>
    <v>      -5.86767600      -5.86767600       0.00000000 </v>
    <v>       0.00000000       0.00000000     -11.73535200 </v>
   </varray>
   <i name="volume">    808.08745837 </i>
   <varray name="rec_basis" >
    <v>       0.08521261      -0.08521261       0.00000000 </v>
    <v>      -0.08521261      -0.08521261      -0.00000000 </v>
    <v>       0.00000000      -0.00000000      -0.08521261 </v>
   </varray>
  </crystal>
  <varray name="positions" >
   <v>       0.00000000      -0.50000000      -0.25000000 </v>
   <v>       0.30000000      -0.50000000      -0.25000000 </v>
   <v>      -0.16000000       0.34000000      -0.10000000 </v>
   <v>      -0.16000000       0.34000000      -0.40000000 </v>
   <v>      -0.34000000      -0.16000000      -0.10000000 </v>
   <v>      -0.34000000      -0.16000000      -0.40000000 </v>
   <v>       0.20000000       0.00000000      -0.25000000 </v>
   <v>       0.16000000      -0.34000000       0.10000000 </v>
   <v>       0.16000000      -0.34000000       0.40000000 </v>
   <v>       0.00000000       0.00000000       0.00000000 </v>
   <v>       0.00000000       0.00000000      -0.50000000 </v>
   <v>      -0.50000000      -0.50000000       0.00000000 </v>
   <v>      -0.50000000      -0.50000000      -0.50000000 </v>
   <v>       0.34000000       0.16000000       0.10000000 </v>
   <v>       0.34000000       0.16000000       0.40000000 </v>
   <v>       0.00000000      -0.50000000       0.25000000 </v>
   <v>      -0.50000000       0.00000000      -0.25000000 </v>
   <v>      -0.30000000      -0.50000000       0.25000000 </v>
   <v>      -0.20000000       0.00000000       0.25000000 </v>
   <v>      -0.50000000       0.00000000       0.25000000 </v>
  </varray>
 </structure>
 <varray name="primitive_index" >
  <v type="int" >        1 </v>
  <v type="int" >       29 </v>
  <v type="int" >       35 </v>
  <v type="int" >       36 </v>
  <v type="int" >       17 </v>
  <v type="int" >       18 </v>
  <v type="int" >       25 </v>
  <v type="int" >       33 </v>
  <v type="int" >       34 </v>
  <v type="int" >        9 </v>
  <v type="int" >       10 </v>
  <v type="int" >       11 </v>
  <v type="int" >       12 </v>
  <v type="int" >       21 </v>
  <v type="int" >       22 </v>
  <v type="int" >        2 </v>
  <v type="int" >        3 </v>
  <v type="int" >       28 </v>
  <v type="int" >       26 </v>
  <v type="int" >        4 </v>
 </varray>
 <kpoints>
  <generation param="Gamma">
   <v type="int" name="divisions">       2        2        2 </v>
   <v name="usershift">      0.00000000       0.00000000       0.00000000 </v>
   <v name="genvec1">      0.50000000       0.00000000       0.00000000 </v>
   <v name="genvec2">      0.00000000       0.50000000       0.00000000 </v>
   <v name="genvec3">      0.00000000       0.00000000       0.50000000 </v>
   <v name="shift">      0.00000000       0.00000000       0.00000000 </v>
  </generation>
  <varray name="kpointlist" >
   <v>       0.00000000       0.00000000       0.00000000 </v>
   <v>       0.50000000       0.00000000       0.00000000 </v>
   <v>       0.50000000       0.50000000       0.00000000 </v>
   <v>       0.00000000       0.00000000       0.50000000 </v>
   <v>       0.50000000       0.00000000       0.50000000 </v>
   <v>       0.50000000       0.50000000       0.50000000 </v>
  </varray>
  <varray name="weights" >
   <v>       0.12500000 </v>
   <v>       0.25000000 </v>
   <v>       0.12500000 </v>
   <v>       0.12500000 </v>
   <v>       0.25000000 </v>
   <v>       0.12500000 </v>
  </varray>
 </kpoints>
 <parameters>
  <separator name="general" >
   <i type="string" name="SYSTEM">CsPbBr3 cubic bulk</i>
   <i type="logical" name="LCOMPAT"> F  </i>
  </separator>
  <separator name="electronic" >
   <i type="string" name="PREC">accura</i>
   <i name="ENMAX">    300.00000000</i>
   <i name="ENAUG">    503.85200000</i>
   <i name="EDIFF">      0.00000100</i>
   <i type="int" name="IALGO">    38</i>
   <i type="int" name="IWAVPR">    10</i>
   <i type="int" name="NBANDS">   216</i>
   <i name="NELECT">    352.00000000</i>
   <i type="int" name="TURBO">     0</i>
   <i type="int" name="IRESTART">     0</i>
   <i type="int" name="NREBOOT">     0</i>
   <i type="int" name="NMIN">     0</i>
   <i name="EREF">      0.00000000</i>
   <separator name="electronic smearing" >
    <i type="int" name="ISMEAR">     0</i>
    <i name="SIGMA">      0.01000000</i>
    <i name="KSPACING">      0.50000000</i>
    <i type="logical" name="KGAMMA"> T  </i>
   </separator>
   <separator name="electronic projectors" >
    <i type="logical" name="LREAL"> T  </i>
    <v name="ROPT">     -0.00025000     -0.00025000     -0.00025000</v>
    <i type="int" name="LMAXPAW">  -100</i>
    <i type="int" name="LMAXMIX">     2</i>
    <i type="logical" name="NLSPLINE"> F  </i>
   </separator>
   <separator name="electronic startup" >
    <i type="int" name="ISTART">     0</i>
    <i type="int" name="ICHARG">     2</i>
    <i type="int" name="INIWAV">     1</i>
   </separator>
   <separator name="electronic spin" >
    <i type="int" name="ISPIN">     1</i>
    <i type="logical" name="LNONCOLLINEAR"> F  </i>
    <v name="MAGMOM">      1.00000000      1.00000000      1.00000000      1.00000000      1.00000000      1.00000000      1.00000000      1.00000000      1.00000000      1.00000000      1.00000000      1.00000000      1.00000000      1.00000000      1.00000000      1.00000000      1.00000000      1.00000000      1.00000000      1.00000000
      1.00000000      1.00000000      1.00000000      1.00000000      1.00000000      1.00000000      1.00000000      1.00000000      1.00000000      1.00000000      1.00000000      1.00000000      1.00000000      1.00000000      1.00000000      1.00000000      1.00000000      1.00000000      1.00000000      1.00000000
</v>
    <i name="NUPDOWN">     -1.00000000</i>
    <i type="logical" name="LSORBIT"> F  </i>
    <v name="SAXIS">      0.00000000      0.00000000      1.00000000</v>
    <i type="logical" name="LSPIRAL"> F  </i>
    <v name="QSPIRAL">      0.00000000      0.00000000      0.00000000</v>
    <i type="logical" name="LZEROZ"> F  </i>
   </separator>
   <separator name="electronic exchange-correlation" >
    <i type="logical" name="LASPH"> T  </i>
    <i type="logical" name="LMETAGGA"> F  </i>
   </separator>
   <separator name="electronic convergence" >
    <i type="int" name="NELM">   200</i>
    <i type="int" name="NELMDL">    -5</i>
    <i type="int" name="NELMIN">     2</i>
    <i name="ENINI">    300.00000000</i>
    <separator name="electronic convergence detail" >
     <i type="logical" name="LDIAG"> T  </i>
     <i type="logical" name="LSUBROT"> F  </i>
     <i name="WEIMIN">      0.00000000</i>
     <i name="EBREAK">      0.00000000</i>
     <i name="DEPER">      0.30000000</i>
     <i type="int" name="NRMM">     4</i>
     <i name="TIME">      0.40000000</i>
    </separator>
   </separator>
   <separator name="electronic mixer" >
    <i name="AMIX">      0.40000000</i>
    <i name="BMIX">      1.00000000</i>
    <i name="AMIN">      0.10000000</i>
    <i name="AMIX_MAG">      1.60000000</i>
    <i name="BMIX_MAG">      1.00000000</i>
    <separator name="electronic mixer details" >
     <i type="int" name="IMIX">     4</i>
     <i type="logical" name="MIXFIRST"> F  </i>
     <i type="int" name="MAXMIX">   -45</i>
     <i name="WC">    100.00000000</i>
     <i type="int" name="INIMIX">     1</i>
     <i type="int" name="MIXPRE">     1</i>
     <i type="int" name="MREMOVE">     5</i>
    </separator>
   </separator>
   <separator name="electronic dipolcorrection" >
    <i type="logical" name="LDIPOL"> F  </i>
    <i type="logical" name="LMONO"> F  </i>
    <i type="int" name="IDIPOL">     0</i>
    <i name="EPSILON">      1.00000000</i>
    <v name="DIPOL">   -100.00000000   -100.00000000   -100.00000000</v>
    <i name="EFIELD">      0.00000000</i>
   </separator>
  </separator>
  <separator name="grids" >
   <i type="int" name="NGX">    70</i>
   <i type="int" name="NGY">    70</i>
   <i type="int" name="NGZ">    70</i>
   <i type="int" name="NGXF">   140</i>
   <i type="int" name="NGYF">   140</i>
   <i type="int" name="NGZF">   140</i>
   <i type="logical" name="ADDGRID"> T  </i>
  </separator>
  <separator name="ionic" >
   <i type="int" name="NSW">     0</i>
   <i type="int" name="IBRION">    -1</i>
   <i type="int" name="MDALGO">     0</i>
   <i type="int" name="ISIF">     3</i>
   <i name="PSTRESS">      0.00000000</i>
   <i name="EDIFFG">     -0.01000000</i>
   <i type="int" name="NFREE">     1</i>
   <i name="POTIM">      0.50000000</i>
   <i name="SMASS">     -3.00000000</i>
   <i name="SCALEE">      1.00000000</i>
  </separator>
  <separator name="ionic md" >
   <i name="TEBEG">      0.00010000</i>
   <i name="TEEND">      0.00010000</i>
   <i type="int" name="NBLOCK">     1</i>
   <i type="int" name="KBLOCK">     1</i>
   <i type="int" name="NPACO">   256</i>
   <i name="APACO">     16.00000000</i>
  </separator>
  <separator name="symmetry" >
   <i type="int" name="ISYM">     2</i>
   <i name="SYMPREC">      0.00001000</i>
  </separator>
  <separator name="dos" >
   <i type="int" name="LORBIT">    10</i>
   <v name="RWIGS">     -1.00000000     -1.00000000     -1.00000000</v>
   <i type="int" name="NEDOS">   301</i>
   <i name="EMIN">     10.00000000</i>
   <i name="EMAX">    -10.00000000</i>
   <i name="EFERMI">      0.00000000</i>
  </separator>
  <separator name="writing" >
   <i type="int" name="NWRITE">     2</i>
   <i type="logical" name="LWAVE"> F  </i>
   <i type="logical" name="LDOWNSAMPLE"> F  </i>
   <i type="logical" name="LCHARG"> T  </i>
   <i type="logical" name="LPARD"> F  </i>
   <i type="logical" name="LVTOT"> F  </i>
   <i type="logical" name="LVHAR"> T  </i>
   <i type="logical" name="LELF"> F  </i>
   <i type="logical" name="LOPTICS"> F  </i>
   <v name="STM">      0.00000000      0.00000000      0.00000000      0.00000000      0.00000000      0.00000000      0.00000000</v>
  </separator>
  <separator name="performance" >
   <i type="int" name="NPAR">     8</i>
   <i type="int" name="NSIM">     4</i>
   <i type="int" name="NBLK">    -1</i>
   <i type="logical" name="LPLANE"> T  </i>
   <i type="logical" name="LSCALAPACK"> T  </i>
   <i type="logical" name="LSCAAWARE"> F  </i>
   <i type="logical" name="LSCALU"> F  </i>
   <i type="logical" name="LASYNC"> F  </i>
   <i type="logical" name="LORBITALREAL"> F  </i>
  </separator>
  <separator name="miscellaneous" >
   <i type="int" name="IDIOT">     3</i>
   <i type="int" name="ISPECIAL">     0</i>
   <i type="logical" name="LMUSIC"> F  </i>
   <v name="POMASS">    132.90000000    207.20000000     79.90400000</v>
   <v name="DARWINR">      0.00000000      0.00000000      0.00000000</v>
   <v name="DARWINV">      1.00000000      1.00000000      1.00000000</v>
   <i type="logical" name="LCORR"> T  </i>
  </separator>
  <i type="logical" name="GGA_COMPAT"> T  </i>
  <i type="logical" name="LBERRY"> F  </i>
  <i type="int" name="ICORELEVEL">     0</i>
  <i type="logical" name="LDAU"> F  </i>
  <i type="int" name="I_CONSTRAINED_M">     0</i>
  <separator name="electronic exchange-correlation" >
   <i type="string" name="GGA">--</i>
   <i type="int" name="VOSKOWN">     0</i>
   <i type="logical" name="LHFCALC"> F  </i>
   <i type="string" name="PRECFOCK"></i>
   <i type="logical" name="LSYMGRAD"> F  </i>
   <i type="logical" name="LHFONE"> F  </i>
   <i type="logical" name="LRHFCALC"> F  </i>
   <i type="logical" name="LTHOMAS"> F  </i>
   <i type="logical" name="LMODELHF"> F  </i>
   <i name="ENCUT4O">     -1.00000000</i>
   <i type="int" name="EXXOEP">     0</i>
   <i type="int" name="FOURORBIT">     0</i>
   <i name="AEXX">      0.00000000</i>
   <i name="HFALPHA">      0.00000000</i>
   <i name="MCALPHA">      0.00000000</i>
   <i name="ALDAX">      1.00000000</i>
   <i name="AGGAX">      1.00000000</i>
   <i name="ALDAC">      1.00000000</i>
   <i name="AGGAC">      1.00000000</i>
   <i type="int" name="NKREDX">     1</i>
   <i type="int" name="NKREDY">     1</i>
   <i type="int" name="NKREDZ">     1</i>
   <i type="logical" name="SHIFTRED"> F  </i>
   <i type="logical" name="ODDONLY"> F  </i>
   <i type="logical" name="EVENONLY"> F  </i>
   <i type="int" name="LMAXFOCK">     0</i>
   <i type="int" name="NMAXFOCKAE">     0</i>
   <i type="logical" name="LFOCKAEDFT"> F  </i>
   <i name="HFSCREEN">      0.00000000</i>
   <i name="HFSCREENC">      0.00000000</i>
   <i type="int" name="NBANDSGWLOW">     0</i>
  </separator>
  <separator name="vdW DFT" >
   <i type="logical" name="LUSE_VDW"> F  </i>
   <i name="Zab_VDW">     -0.84910000</i>
   <i name="PARAM1">      0.12340000</i>
   <i name="PARAM2">      1.00000000</i>
   <i name="PARAM3">      0.00000000</i>
  </separator>
  <separator name="model GW" >
   <i type="int" name="MODEL_GW">     0</i>
   <i name="MODEL_EPS0">     24.24262375</i>
   <i name="MODEL_ALPHA">      1.00000000</i>
  </separator>
  <separator name="linear response parameters" >
   <i type="logical" name="LEPSILON"> F  </i>
   <i type="logical" name="LRPA"> F  </i>
   <i type="logical" name="LNABLA"> F  </i>
   <i type="logical" name="LVEL"> F  </i>
   <i type="int" name="KINTER">     0</i>
   <i name="CSHIFT">      0.10000000</i>
   <i name="OMEGAMAX">     -1.00000000</i>
   <i name="DEG_THRESHOLD">      0.00200000</i>
   <i name="RTIME">     -0.10000000</i>
   <i name="WPLASMAI">      0.00000000</i>
   <v name="DFIELD">      0.00000000      0.00000000      0.00000000</v>
   <v name="WPLASMA">      0.00000000      0.00000000      0.00000000      0.00000000      0.00000000      0.00000000      0.00000000      0.00000000      0.00000000</v>
  </separator>
  <separator name="orbital magnetization" >
   <i type="logical" name="NUCIND"> F  </i>
   <v name="MAGPOS">      0.00000000      0.00000000      0.00000000</v>
   <i type="logical" name="LNICSALL"> T  </i>
   <i type="logical" name="ORBITALMAG"> F  </i>
   <i type="logical" name="LMAGBLOCH"> F  </i>
   <i type="logical" name="LCHIMAG"> F  </i>
   <i type="logical" name="LGAUGE"> T  </i>
   <i type="int" name="MAGATOM">     0</i>
   <v name="MAGDIPOL">      0.00000000      0.00000000      0.00000000</v>
   <v name="AVECCONST">      0.00000000      0.00000000      0.00000000</v>
  </separator>
  <separator name="response functions" >
   <i type="logical" name="LADDER"> F  </i>
   <i type="logical" name="LRPAFORCE"> F  </i>
   <i type="logical" name="LFXC"> F  </i>
   <i type="logical" name="LHARTREE"> T  </i>
   <i type="int" name="IBSE">     0</i>
   <v type="int" name="KPOINT">    -1     0     0     0</v>
   <i type="logical" name="LTCTE"> F  </i>
   <i type="logical" name="LTETE"> F  </i>
   <i type="logical" name="LTRIPLET"> F  </i>
   <i type="logical" name="LFXCEPS"> F  </i>
   <i type="logical" name="LFXHEG"> F  </i>
   <i type="int" name="NATURALO">     2</i>
   <i type="logical" name="L2ORDER"> F  </i>
   <i type="logical" name="LMP2LT"> F  </i>
   <i type="logical" name="LUSEW"> F  </i>
   <i name="ENCUTGW">     -2.00000000</i>
   <i name="ENCUTGWSOFT">     -2.00000000</i>
   <i name="ENCUTLF">     -1.00000000</i>
   <i type="int" name="LMAXMP2">    -1</i>
   <i name="SCISSOR">      0.00000000</i>
   <i type="int" name="NOMEGA">     0</i>
   <i type="int" name="NOMEGAR">     0</i>
   <i type="int" name="NBANDSGW">    -1</i>
   <i type="int" name="NBANDSO">    -1</i>
   <i type="int" name="NBANDSV">    -1</i>
   <i type="int" name="NELM">   200</i>
   <i type="int" name="NELMHF">     1</i>
   <i type="int" name="DIM">     3</i>
   <i type="int" name="ANTIRES">     0</i>
   <i name="OMEGAMAX">    -30.00000000</i>
   <i name="OMEGAMIN">    -30.00000000</i>
   <i name="OMEGATL">   -200.00000000</i>
   <i type="int" name="OMEGAGRID">   140</i>
   <i name="CSHIFT">     -0.10000000</i>
   <i type="logical" name="SELFENERGY"> F  </i>
   <i type="logical" name="LSPECTRAL"> F  </i>
   <i type="logical" name="LSPECTRALGW"> F  </i>
   <i type="logical" name="LSINGLES"> F  </i>
   <i type="logical" name="LFERMIGW"> F  </i>
   <i type="logical" name="ODDONLYGW"> F  </i>
   <i type="logical" name="EVENONLYGW"> F  </i>
   <i type="int" name="NKREDLFX">     1</i>
   <i type="int" name="NKREDLFY">     1</i>
   <i type="int" name="NKREDLFZ">     1</i>
   <i type="int" name="MAXMEM">  2800</i>
   <i type="int" name="TELESCOPE">     0</i>
   <i type="int" name="TAUPAR">     1</i>
   <i type="int" name="OMEGAPAR">    -1</i>
   <i name="LAMBDA">      1.00000000</i>
  </separator>
  <separator name="External order field" >
   <i name="OFIELD_KAPPA">      0.00000000</i>
   <v name="OFIELD_K">      0.00000000      0.00000000      0.00000000</v>
   <i name="OFIELD_Q6_NEAR">      0.00000000</i>
   <i name="OFIELD_Q6_FAR">      0.00000000</i>
   <i name="OFIELD_A">      0.00000000</i>
  </separator>
 </parameters>
 <atominfo>
  <atoms>      40 </atoms>
  <types>       3 </types>
  <array name="atoms" >
   <dimension dim="1">ion</dimension>
   <field type="string">element</field>
   <field type="int">atomtype</field>
   <set>
    <rc><c>Cs</c><c>   1</c></rc>
    <rc><c>Cs</c><c>   1</c></rc>
    <rc><c>Cs</c><c>   1</c></rc>
    <rc><c>Cs</c><c>   1</c></rc>
    <rc><c>Cs</c><c>   1</c></rc>
    <rc><c>Cs</c><c>   1</c></rc>
    <rc><c>Cs</c><c>   1</c></rc>
    <rc><c>Cs</c><c>   1</c></rc>
    <rc><c>Pb</c><c>   2</c></rc>
    <rc><c>Pb</c><c>   2</c></rc>
    <rc><c>Pb</c><c>   2</c></rc>
    <rc><c>Pb</c><c>   2</c></rc>
    <rc><c>Pb</c><c>   2</c></rc>
    <rc><c>Pb</c><c>   2</c></rc>
    <rc><c>Pb</c><c>   2</c></rc>
    <rc><c>Pb</c><c>   2</c></rc>
    <rc><c>Br</c><c>   3</c></rc>
    <rc><c>Br</c><c>   3</c></rc>
    <rc><c>Br</c><c>   3</c></rc>
    <rc><c>Br</c><c>   3</c></rc>
    <rc><c>Br</c><c>   3</c></rc>
    <rc><c>Br</c><c>   3</c></rc>
    <rc><c>Br</c><c>   3</c></rc>
    <rc><c>Br</c><c>   3</c></rc>
    <rc><c>Br</c><c>   3</c></rc>
    <rc><c>Br</c><c>   3</c></rc>
    <rc><c>Br</c><c>   3</c></rc>
    <rc><c>Br</c><c>   3</c></rc>
    <rc><c>Br</c><c>   3</c></rc>
    <rc><c>Br</c><c>   3</c></rc>
    <rc><c>Br</c><c>   3</c></rc>
    <rc><c>Br</c><c>   3</c></rc>
    <rc><c>Br</c><c>   3</c></rc>
    <rc><c>Br</c><c>   3</c></rc>
    <rc><c>Br</c><c>   3</c></rc>
    <rc><c>Br</c><c>   3</c></rc>
    <rc><c>Br</c><c>   3</c></rc>
    <rc><c>Br</c><c>   3</c></rc>
    <rc><c>Br</c><c>   3</c></rc>
    <rc><c>Br</c><c>   3</c></rc>
   </set>
  </array>
  <array name="atomtypes" >
   <dimension dim="1">type</dimension>
   <field type="int">atomspertype</field>
   <field type="string">element</field>
   <field>mass</field>
   <field>valence</field>
   <field type="string">pseudopotential</field>
   <set>
    <rc><c>   8</c><c>Cs</c><c>    132.90000000</c><c>      9.00000000</c><c>  PAW_PBE Cs_sv 08Apr2002               </c></rc>
    <rc><c>   8</c><c>Pb</c><c>    207.20000000</c><c>     14.00000000</c><c>  PAW_PBE Pb_d 06Sep2000                </c></rc>
    <rc><c>  24</c><c>Br</c><c>     79.90400000</c><c>      7.00000000</c><c>  PAW_PBE Br 06Sep2000                  </c></rc>
   </set>
  </array>
 </atominfo>
 <structure name="initialpos" >
  <crystal>
   <varray name="basis" >
    <v>      11.73535200       0.00000000       0.00000000 </v>
    <v>       0.00000000      11.73535200       0.00000000 </v>
    <v>       0.00000000       0.00000000      11.73535200 </v>
   </varray>
   <i name="volume">   1616.17491673 </i>
   <varray name="rec_basis" >
    <v>       0.08521261       0.00000000       0.00000000 </v>
    <v>       0.00000000       0.08521261       0.00000000 </v>
    <v>       0.00000000       0.00000000       0.08521261 </v>
   </varray>
  </crystal>
  <varray name="positions" >
   <v>       0.25000000       0.25000000       0.25000000 </v>
   <v>       0.25000000       0.25000000       0.75000000 </v>
   <v>       0.25000000       0.75000000       0.25000000 </v>
   <v>       0.25000000       0.75000000       0.75000000 </v>
   <v>       0.75000000       0.25000000       0.25000000 </v>
   <v>       0.75000000       0.25000000       0.75000000 </v>
   <v>       0.75000000       0.75000000       0.25000000 </v>
   <v>       0.75000000       0.75000000       0.75000000 </v>
   <v>       0.00000000       0.00000000       0.00000000 </v>
   <v>       0.00000000       0.00000000       0.50000000 </v>
   <v>       0.00000000       0.50000000       0.00000000 </v>
   <v>       0.00000000       0.50000000       0.50000000 </v>
   <v>       0.50000000       0.00000000       0.00000000 </v>
   <v>       0.50000000       0.00000000       0.50000000 </v>
   <v>       0.50000000       0.50000000       0.00000000 </v>
   <v>       0.50000000       0.50000000       0.50000000 </v>
   <v>       0.91000000       0.25000000       0.10000000 </v>
   <v>       0.91000000       0.25000000       0.40000000 </v>
   <v>       0.09000000       0.75000000       0.90000000 </v>
   <v>       0.09000000       0.75000000       0.60000000 </v>
   <v>       0.59000000       0.25000000       0.90000000 </v>
   <v>       0.59000000       0.25000000       0.60000000 </v>
   <v>       0.41000000       0.75000000       0.10000000 </v>
   <v>       0.41000000       0.75000000       0.40000000 </v>
   <v>       0.10000000       0.90000000       0.25000000 </v>
   <v>       0.90000000       0.10000000       0.75000000 </v>
   <v>       0.90000000       0.60000000       0.25000000 </v>
   <v>       0.10000000       0.40000000       0.75000000 </v>
   <v>       0.40000000       0.10000000       0.25000000 </v>
   <v>       0.60000000       0.90000000       0.75000000 </v>
   <v>       0.60000000       0.40000000       0.25000000 </v>
   <v>       0.40000000       0.60000000       0.75000000 </v>
   <v>       0.25000000       0.09000000       0.90000000 </v>
   <v>       0.25000000       0.09000000       0.60000000 </v>
   <v>       0.25000000       0.41000000       0.10000000 </v>
   <v>       0.25000000       0.41000000       0.40000000 </v>
   <v>       0.75000000       0.91000000       0.10000000 </v>
   <v>       0.75000000       0.91000000       0.40000000 </v>
   <v>       0.75000000       0.59000000       0.90000000 </v>
   <v>       0.75000000       0.59000000       0.60000000 </v>
  </varray>
 </structure>
 <calculation>
  <scstep>
   <time name="dav">   12.84   12.85</time>
   <time name="total">   14.30   14.32</time>
   <energy>
    <i name="alphaZ">    892.99476195 </i>
    <i name="ewald"> -18562.76173030 </i>
    <i name="hartreedc">  -7060.35209117 </i>
    <i name="XCdc">    929.80076623 </i>
    <i name="pawpsdc">  21633.96174531 </i>
    <i name="pawaedc"> -22707.92185401 </i>
    <i name="eentropy">     -0.00222801 </i>
    <i name="bandstr">   -244.42922416 </i>
    <i name="atom">  26580.56019858 </i>
    <i name="e_fr_energy">   1461.85034443 </i>
    <i name="e_wo_entrp">   1461.85257244 </i>
    <i name="e_0_energy">   1461.85145844 </i>
   </energy>
  </scstep>
  <scstep>
   <time name="dav">   14.47   14.48</time>
   <time name="total">   14.47   14.48</time>
   <energy>
    <i name="e_fr_energy">  -1067.30837615 </i>
    <i name="e_wo_entrp">  -1067.30837615 </i>
    <i name="e_0_energy">  -1067.30837615 </i>
   </energy>
  </scstep>
  <scstep>
   <time name="dav">   15.09   15.13</time>
   <time name="total">   15.09   15.13</time>
   <energy>
    <i name="e_fr_energy">  -1454.04865879 </i>
    <i name="e_wo_entrp">  -1454.04865879 </i>
    <i name="e_0_energy">  -1454.04865879 </i>
   </energy>
  </scstep>
  <scstep>
   <time name="dav">   13.81   13.81</time>
   <time name="total">   13.81   13.81</time>
   <energy>
    <i name="e_fr_energy">  -1467.34539737 </i>
    <i name="e_wo_entrp">  -1467.34539737 </i>
    <i name="e_0_energy">  -1467.34539737 </i>
   </energy>
  </scstep>
  <scstep>
   <time name="dav">   15.02   15.08</time>
   <time name="total">   17.82   17.88</time>
   <energy>
    <i name="e_fr_energy">  -1468.00165577 </i>
    <i name="e_wo_entrp">  -1468.00165577 </i>
    <i name="e_0_energy">  -1468.00165577 </i>
   </energy>
  </scstep>
  <scstep>
   <time name="dav">   14.88   14.88</time>
   <time name="total">   19.15   19.19</time>
   <energy>
    <i name="e_fr_energy">  -1376.85762610 </i>
    <i name="e_wo_entrp">  -1376.85762610 </i>
    <i name="e_0_energy">  -1376.85762610 </i>
   </energy>
  </scstep>
  <scstep>
   <time name="dav">   13.80   13.80</time>
   <time name="total">   18.09   18.14</time>
   <energy>
    <i name="e_fr_energy">  -1376.24220809 </i>
    <i name="e_wo_entrp">  -1376.24220809 </i>
    <i name="e_0_energy">  -1376.24220809 </i>
   </energy>
  </scstep>
  <scstep>
   <time name="dav">   13.27   13.27</time>
   <time name="total">   17.58   17.60</time>
   <energy>
    <i name="e_fr_energy">  -1376.50964995 </i>
    <i name="e_wo_entrp">  -1376.50964995 </i>
    <i name="e_0_energy">  -1376.50964995 </i>
   </energy>
  </scstep>
  <scstep>
   <time name="dav">   13.21   13.21</time>
   <time name="total">   17.53   17.54</time>
   <energy>
    <i name="e_fr_energy">  -1376.55745547 </i>
    <i name="e_wo_entrp">  -1376.55745547 </i>
    <i name="e_0_energy">  -1376.55745547 </i>
   </energy>
  </scstep>
  <scstep>
   <time name="dav">   13.91   13.91</time>
   <time name="total">   18.21   18.24</time>
   <energy>
    <i name="e_fr_energy">  -1376.57623136 </i>
    <i name="e_wo_entrp">  -1376.57623136 </i>
    <i name="e_0_energy">  -1376.57623136 </i>
   </energy>
  </scstep>
  <scstep>
   <time name="dav">   13.30   13.30</time>
   <time name="total">   17.65   17.65</time>
   <energy>
    <i name="e_fr_energy">  -1376.58053237 </i>
    <i name="e_wo_entrp">  -1376.58053237 </i>
    <i name="e_0_energy">  -1376.58053237 </i>
   </energy>
  </scstep>
  <scstep>
   <time name="dav">   14.59   14.59</time>
   <time name="total">   18.89   18.92</time>
   <energy>
    <i name="e_fr_energy">  -1376.58092799 </i>
    <i name="e_wo_entrp">  -1376.58092799 </i>
    <i name="e_0_energy">  -1376.58092799 </i>
   </energy>
  </scstep>
  <scstep>
   <time name="dav">   13.63   13.63</time>
   <time name="total">   17.94   17.96</time>
   <energy>
    <i name="e_fr_energy">  -1376.58111444 </i>
    <i name="e_wo_entrp">  -1376.58111444 </i>
    <i name="e_0_energy">  -1376.58111444 </i>
   </energy>
  </scstep>
  <scstep>
   <time name="dav">   13.07   13.07</time>
   <time name="total">   17.37   17.41</time>
   <energy>
    <i name="e_fr_energy">  -1376.58136828 </i>
    <i name="e_wo_entrp">  -1376.58136828 </i>
    <i name="e_0_energy">  -1376.58136828 </i>
   </energy>
  </scstep>
  <scstep>
   <time name="dav">   13.50   13.50</time>
   <time name="total">   17.80   17.85</time>
   <energy>
    <i name="e_fr_energy">  -1376.58135729 </i>
    <i name="e_wo_entrp">  -1376.58135729 </i>
    <i name="e_0_energy">  -1376.58135729 </i>
   </energy>
  </scstep>
  <scstep>
   <time name="dav">    9.88    9.88</time>
   <time name="total">   14.21   14.24</time>
   <energy>
    <i name="e_fr_energy">  -1376.58135162 </i>
    <i name="e_wo_entrp">  -1376.58135162 </i>
    <i name="e_0_energy">  -1376.58135162 </i>
   </energy>
  </scstep>
  <scstep>
   <time name="dav">    9.63    9.63</time>
   <time name="total">   13.97   13.98</time>
   <energy>
    <i name="e_fr_energy">  -1376.58133810 </i>
    <i name="e_wo_entrp">  -1376.58133810 </i>
    <i name="e_0_energy">  -1376.58133810 </i>
   </energy>
  </scstep>
  <scstep>
   <time name="dav">   11.80   11.80</time>
   <time name="total">   16.13   16.15</time>
   <energy>
    <i name="e_fr_energy">  -1376.58132940 </i>
    <i name="e_wo_entrp">  -1376.58132940 </i>
    <i name="e_0_energy">  -1376.58132940 </i>
   </energy>
  </scstep>
  <scstep>
   <time name="dav">   11.59   11.59</time>
   <time name="total">   15.90   15.94</time>
   <energy>
    <i name="e_fr_energy">  -1376.58133822 </i>
    <i name="e_wo_entrp">  -1376.58133822 </i>
    <i name="e_0_energy">  -1376.58133822 </i>
   </energy>
  </scstep>
  <scstep>
   <time name="dav">   10.27   10.27</time>
   <time name="total">   11.74   11.77</time>
   <energy>
    <i name="alphaZ">    892.99476195 </i>
    <i name="ewald"> -18562.76173030 </i>
    <i name="hartreedc">  -7119.35520651 </i>
    <i name="XCdc">    968.34722781 </i>
    <i name="pawpsdc">  24736.64623790 </i>
    <i name="pawaedc"> -25805.94065552 </i>
    <i name="eentropy">     -0.00000000 </i>
    <i name="bandstr">  -3067.07217211 </i>
    <i name="atom">  26580.56019858 </i>
    <i name="e_fr_energy">  -1376.58133820 </i>
    <i name="e_wo_entrp">  -1376.58133820 </i>
    <i name="e_0_energy">  -1376.58133820 </i>
   </energy>
  </scstep>
  <structure>
   <crystal>
    <varray name="basis" >
     <v>      11.73535200       0.00000000       0.00000000 </v>
     <v>       0.00000000      11.73535200       0.00000000 </v>
     <v>       0.00000000       0.00000000      11.73535200 </v>
    </varray>
    <i name="volume">   1616.17491673 </i>
    <varray name="rec_basis" >
     <v>       0.08521261       0.00000000       0.00000000 </v>
     <v>       0.00000000       0.08521261       0.00000000 </v>
     <v>       0.00000000       0.00000000       0.08521261 </v>
    </varray>
   </crystal>
   <varray name="positions" >
    <v>       0.25000000       0.25000000       0.25000000 </v>
    <v>       0.25000000       0.25000000       0.75000000 </v>
    <v>       0.25000000       0.75000000       0.25000000 </v>
    <v>       0.25000000       0.75000000       0.75000000 </v>
    <v>       0.75000000       0.25000000       0.25000000 </v>
    <v>       0.75000000       0.25000000       0.75000000 </v>
    <v>       0.75000000       0.75000000       0.25000000 </v>
    <v>       0.75000000       0.75000000       0.75000000 </v>
    <v>       0.00000000       0.00000000       0.00000000 </v>
    <v>       0.00000000       0.00000000       0.50000000 </v>
    <v>       0.00000000       0.50000000       0.00000000 </v>
    <v>       0.00000000       0.50000000       0.50000000 </v>
    <v>       0.50000000       0.00000000       0.00000000 </v>
    <v>       0.50000000       0.00000000       0.50000000 </v>
    <v>       0.50000000       0.50000000       0.00000000 </v>
    <v>       0.50000000       0.50000000       0.50000000 </v>
    <v>       0.91000000       0.25000000       0.10000000 </v>
    <v>       0.91000000       0.25000000       0.40000000 </v>
    <v>       0.09000000       0.75000000       0.90000000 </v>
    <v>       0.09000000       0.75000000       0.60000000 </v>
    <v>       0.59000000       0.25000000       0.90000000 </v>
    <v>       0.59000000       0.25000000       0.60000000 </v>
    <v>       0.41000000       0.75000000       0.10000000 </v>
    <v>       0.41000000       0.75000000       0.40000000 </v>
    <v>       0.10000000       0.90000000       0.25000000 </v>
    <v>       0.90000000       0.10000000       0.75000000 </v>
    <v>       0.90000000       0.60000000       0.25000000 </v>
    <v>       0.10000000       0.40000000       0.75000000 </v>
    <v>       0.40000000       0.10000000       0.25000000 </v>
    <v>       0.60000000       0.90000000       0.75000000 </v>
    <v>       0.60000000       0.40000000       0.25000000 </v>
    <v>       0.40000000       0.60000000       0.75000000 </v>
    <v>       0.25000000       0.09000000       0.90000000 </v>
    <v>       0.25000000       0.09000000       0.60000000 </v>
    <v>       0.25000000       0.41000000       0.10000000 </v>
    <v>       0.25000000       0.41000000       0.40000000 </v>
    <v>       0.75000000       0.91000000       0.10000000 </v>
    <v>       0.75000000       0.91000000       0.40000000 </v>
    <v>       0.75000000       0.59000000       0.90000000 </v>
    <v>       0.75000000       0.59000000       0.60000000 </v>
   </varray>
  </structure>
  <varray name="forces" >
   <v>      -5.55058569      -3.10443343      -0.00000000 </v>
   <v>       5.55058569       3.10443343      -0.00000000 </v>
   <v>      -3.10443343      -5.55058569      -0.00000000 </v>
   <v>       3.10443343       5.55058569      -0.00000000 </v>
   <v>      -3.10443343      -5.55058569      -0.00000000 </v>
   <v>       3.10443343       5.55058569      -0.00000000 </v>
   <v>      -5.55058569      -3.10443343      -0.00000000 </v>
   <v>       5.55058569       3.10443343      -0.00000000 </v>
   <v>       0.00000000      -0.00000000      -0.00000000 </v>
   <v>       0.00000000       0.00000000      -0.00000000 </v>
   <v>       0.00000000       0.00000000      -0.00000000 </v>
   <v>       0.00000000       0.00000000      -0.00000000 </v>
   <v>       0.00000000       0.00000000      -0.00000000 </v>
   <v>       0.00000000      -0.00000000      -0.00000000 </v>
   <v>       0.00000000       0.00000000      -0.00000000 </v>
   <v>       0.00000000      -0.00000000      -0.00000000 </v>
   <v>       4.48983104       0.08551678      -4.47323702 </v>
   <v>       4.48983104       0.08551678       4.47323702 </v>
   <v>      -4.48983104      -0.08551678       4.47323702 </v>
   <v>      -4.48983104      -0.08551678      -4.47323702 </v>
   <v>      -4.48983104      -0.08551678       4.47323702 </v>
   <v>      -4.48983104      -0.08551678      -4.47323702 </v>
   <v>       4.48983104       0.08551678      -4.47323702 </v>
   <v>       4.48983104       0.08551678       4.47323702 </v>
   <v>      -5.54219980       5.72505045      -0.00000000 </v>
   <v>       5.54219980      -5.72505045      -0.00000000 </v>
   <v>       5.72505045      -5.54219980      -0.00000000 </v>
   <v>      -5.72505045       5.54219980      -0.00000000 </v>
   <v>       5.72505045      -5.54219980      -0.00000000 </v>
   <v>      -5.72505045       5.54219980      -0.00000000 </v>
   <v>      -5.54219980       5.72505045      -0.00000000 </v>
   <v>       5.54219980      -5.72505045      -0.00000000 </v>
   <v>      -0.08551678      -4.48983104       4.47323702 </v>
   <v>      -0.08551678      -4.48983104      -4.47323702 </v>
   <v>       0.08551678       4.48983104      -4.47323702 </v>
   <v>       0.08551678       4.48983104       4.47323702 </v>
   <v>       0.08551678       4.48983104      -4.47323702 </v>
   <v>       0.08551678       4.48983104       4.47323702 </v>
   <v>      -0.08551678      -4.48983104       4.47323702 </v>
   <v>      -0.08551678      -4.48983104      -4.47323702 </v>
  </varray>
  <varray name="stress" >
   <v>      99.11443075     -68.92841252       0.00000000 </v>
   <v>     -68.92841252      99.11443075       0.00000000 </v>
   <v>       0.00000000       0.00000000      77.63357558 </v>
  </varray>
  <energy>
   <i name="e_fr_energy">  -1376.58133820 </i>
   <i name="e_wo_entrp">  -1376.58133820 </i>
   <i name="e_0_energy">     -0.00000000 </i>
  </energy>
  <time name="totalsc">  377.03  377.88</time>
  <eigenvalues>
   <array>
    <dimension dim="1">band</dimension>
    <dimension dim="2">kpoint</dimension>
    <dimension dim="3">spin</dimension>
    <field>eigene</field>
    <field>occ</field>
    <set>
     <set comment="spin 1">
      <set comment="kpoint 1">
       <r>  -20.4463    1.0000 </r>
       <r>  -20.4415    1.0000 </r>
       <r>  -20.4403    1.0000 </r>
       <r>  -20.4403    1.0000 </r>
       <r>  -20.4362    1.0000 </r>
       <r>  -20.4362    1.0000 </r>
       <r>  -20.4349    1.0000 </r>
       <r>  -20.4303    1.0000 </r>
       <r>  -17.2899    1.0000 </r>
       <r>  -17.2882    1.0000 </r>
       <r>  -17.2864    1.0000 </r>
       <r>  -17.2856    1.0000 </r>
       <r>  -17.2856    1.0000 </r>
       <r>  -17.2840    1.0000 </r>
       <r>  -17.2840    1.0000 </r>
       <r>  -17.2800    1.0000 </r>
       <r>  -17.2753    1.0000 </r>
       <r>  -17.2748    1.0000 </r>
       <r>  -17.2748    1.0000 </r>
       <r>  -17.2726    1.0000 </r>
       <r>  -17.2724    1.0000 </r>
       <r>  -17.2724    1.0000 </r>
       <r>  -17.2722    1.0000 </r>
       <r>  -17.2718    1.0000 </r>
       <r>  -17.2715    1.0000 </r>
       <r>  -17.2715    1.0000 </r>
       <r>  -17.2715    1.0000 </r>
       <r>  -17.2704    1.0000 </r>
       <r>  -17.2702    1.0000 </r>
       <r>  -17.2700    1.0000 </r>
       <r>  -17.2700    1.0000 </r>
       <r>  -17.2693    1.0000 </r>
       <r>  -17.2584    1.0000 </r>
       <r>  -17.2584    1.0000 </r>
       <r>  -17.2584    1.0000 </r>
       <r>  -17.2584    1.0000 </r>
       <r>  -17.2570    1.0000 </r>
       <r>  -17.2570    1.0000 </r>
       <r>  -17.2570    1.0000 </r>
       <r>  -17.2568    1.0000 </r>
       <r>  -17.2519    1.0000 </r>
       <r>  -17.2519    1.0000 </r>
       <r>  -17.2519    1.0000 </r>
       <r>  -17.2517    1.0000 </r>
       <r>  -17.2512    1.0000 </r>
       <r>  -17.2512    1.0000 </r>
       <r>  -17.2511    1.0000 </r>
       <r>  -17.2510    1.0000 </r>
       <r>  -14.8079    1.0000 </r>
       <r>  -14.8011    1.0000 </r>
       <r>  -14.8011    1.0000 </r>
       <r>  -14.7724    1.0000 </r>
       <r>  -14.7724    1.0000 </r>
       <r>  -14.7630    1.0000 </r>
       <r>  -14.7540    1.0000 </r>
       <r>  -14.7276    1.0000 </r>
       <r>  -14.4462    1.0000 </r>
       <r>  -14.3943    1.0000 </r>
       <r>  -14.3943    1.0000 </r>
       <r>  -14.3809    1.0000 </r>
       <r>  -14.3524    1.0000 </r>
       <r>  -14.3524    1.0000 </r>
       <r>  -14.3390    1.0000 </r>
       <r>  -14.3261    1.0000 </r>
       <r>  -14.0354    1.0000 </r>
       <r>  -13.9429    1.0000 </r>
       <r>  -13.9429    1.0000 </r>
       <r>  -13.9385    1.0000 </r>
       <r>  -13.9062    1.0000 </r>
       <r>  -13.8958    1.0000 </r>
       <r>  -13.8874    1.0000 </r>
       <r>  -13.8874    1.0000 </r>
       <r>   -8.1078    1.0000 </r>
       <r>   -8.0861    1.0000 </r>
       <r>   -8.0861    1.0000 </r>
       <r>   -8.0206    1.0000 </r>
       <r>   -8.0206    1.0000 </r>
       <r>   -8.0185    1.0000 </r>
       <r>   -7.8760    1.0000 </r>
       <r>   -7.7670    1.0000 </r>
       <r>   -7.4141    1.0000 </r>
       <r>   -7.4016    1.0000 </r>
       <r>   -7.4016    1.0000 </r>
       <r>   -7.3316    1.0000 </r>
       <r>   -7.3107    1.0000 </r>
       <r>   -7.2316    1.0000 </r>
       <r>   -7.1222    1.0000 </r>
       <r>   -7.0763    1.0000 </r>
       <r>   -7.0516    1.0000 </r>
       <r>   -7.0321    1.0000 </r>
       <r>   -7.0321    1.0000 </r>
       <r>   -7.0165    1.0000 </r>
       <r>   -7.0164    1.0000 </r>
       <r>   -6.9146    1.0000 </r>
       <r>   -6.9146    1.0000 </r>
       <r>   -6.8656    1.0000 </r>
       <r>   -6.8649    1.0000 </r>
       <r>   -6.8632    1.0000 </r>
       <r>   -6.8632    1.0000 </r>
       <r>   -6.8598    1.0000 </r>
       <r>   -6.8233    1.0000 </r>
       <r>   -6.8233    1.0000 </r>
       <r>   -6.8139    1.0000 </r>
       <r>   -6.7166    1.0000 </r>
       <r>   -2.7546    1.0000 </r>
       <r>   -2.7512    1.0000 </r>
       <r>   -2.7512    1.0000 </r>
       <r>   -2.7239    1.0000 </r>
       <r>   -2.7239    1.0000 </r>
       <r>   -2.7148    1.0000 </r>
       <r>   -2.7028    1.0000 </r>
       <r>   -2.5395    1.0000 </r>
       <r>   -2.4317    1.0000 </r>
       <r>   -2.4167    1.0000 </r>
       <r>   -2.4167    1.0000 </r>
       <r>   -2.3868    1.0000 </r>
       <r>   -2.3051    1.0000 </r>
       <r>   -2.2865    1.0000 </r>
       <r>   -2.2814    1.0000 </r>
       <r>   -2.2814    1.0000 </r>
       <r>   -2.1839    1.0000 </r>
       <r>   -2.1387    1.0000 </r>
       <r>   -2.1387    1.0000 </r>
       <r>   -2.0329    1.0000 </r>
       <r>   -2.0171    1.0000 </r>
       <r>   -1.9185    1.0000 </r>
       <r>   -1.9185    1.0000 </r>
       <r>   -1.9023    1.0000 </r>
       <r>   -1.9019    1.0000 </r>
       <r>   -1.8647    1.0000 </r>
       <r>   -1.8293    1.0000 </r>
       <r>   -1.8293    1.0000 </r>
       <r>   -1.7760    1.0000 </r>
       <r>   -1.7269    1.0000 </r>
       <r>   -1.6979    1.0000 </r>
       <r>   -1.6533    1.0000 </r>
       <r>   -1.6533    1.0000 </r>
       <r>   -1.5686    1.0000 </r>
       <r>   -1.5686    1.0000 </r>
       <r>   -1.5216    1.0000 </r>
       <r>   -1.5216    1.0000 </r>
       <r>   -1.5208    1.0000 </r>
       <r>   -1.3919    1.0000 </r>
       <r>   -1.3230    1.0000 </r>
       <r>   -1.3230    1.0000 </r>
       <r>   -1.3014    1.0000 </r>
       <r>   -1.2802    1.0000 </r>
       <r>   -1.2277    1.0000 </r>
       <r>   -1.2277    1.0000 </r>
       <r>   -1.1570    1.0000 </r>
       <r>   -1.1249    1.0000 </r>
       <r>   -1.0460    1.0000 </r>
       <r>   -1.0163    1.0000 </r>
       <r>   -0.9629    1.0000 </r>
       <r>   -0.8939    1.0000 </r>
       <r>   -0.8922    1.0000 </r>
       <r>   -0.8922    1.0000 </r>
       <r>   -0.8438    1.0000 </r>
       <r>   -0.8438    1.0000 </r>
       <r>   -0.7321    1.0000 </r>
       <r>   -0.7321    1.0000 </r>
       <r>   -0.6977    1.0000 </r>
       <r>   -0.6591    1.0000 </r>
       <r>   -0.5248    1.0000 </r>
       <r>   -0.4852    1.0000 </r>
       <r>   -0.4004    1.0000 </r>
       <r>   -0.3873    1.0000 </r>
       <r>   -0.3873    1.0000 </r>
       <r>   -0.1219    1.0000 </r>
       <r>    0.1101    1.0000 </r>
       <r>    0.1101    1.0000 </r>
       <r>    0.1150    1.0000 </r>
       <r>    0.4323    1.0000 </r>
       <r>    0.5569    1.0000 </r>
       <r>    0.5587    1.0000 </r>
       <r>    0.5587    1.0000 </r>
       <r>    2.2849    0.0000 </r>
       <r>    2.3376    0.0000 </r>
       <r>    2.3996    0.0000 </r>
       <r>    2.4177    0.0000 </r>
       <r>    2.4405    0.0000 </r>
       <r>    2.4405    0.0000 </r>
       <r>    2.5459    0.0000 </r>
       <r>    2.5459    0.0000 </r>
       <r>    2.5695    0.0000 </r>
       <r>    2.7131    0.0000 </r>
       <r>    2.7131    0.0000 </r>
       <r>    2.8130    0.0000 </r>
       <r>    3.0081    0.0000 </r>
       <r>    3.0584    0.0000 </r>
       <r>    3.0584    0.0000 </r>
       <r>    3.2379    0.0000 </r>
       <r>    3.2410    0.0000 </r>
       <r>    3.4682    0.0000 </r>
       <r>    3.4682    0.0000 </r>
       <r>    3.6765    0.0000 </r>
       <r>    3.6765    0.0000 </r>
       <r>    3.7790    0.0000 </r>
       <r>    3.8091    0.0000 </r>
       <r>    4.0480    0.0000 </r>
       <r>    5.0334    0.0000 </r>
       <r>    6.1248    0.0000 </r>
       <r>    6.1248    0.0000 </r>
       <r>    6.2572    0.0000 </r>
       <r>    6.2847    0.0000 </r>
       <r>    6.3153    0.0000 </r>
       <r>    6.3365    0.0000 </r>
       <r>    6.3792    0.0000 </r>
       <r>    6.3792    0.0000 </r>
       <r>    6.4204    0.0000 </r>
       <r>    6.4204    0.0000 </r>
       <r>    6.6578    0.0000 </r>
       <r>    6.6578    0.0000 </r>
       <r>    6.9372    0.0000 </r>
       <r>    6.9814    0.0000 </r>
       <r>    7.0377    0.0000 </r>
      </set>
      <set comment="kpoint 2">
       <r>  -20.4434    1.0000 </r>
       <r>  -20.4434    1.0000 </r>
       <r>  -20.4387    1.0000 </r>
       <r>  -20.4387    1.0000 </r>
       <r>  -20.4374    1.0000 </r>
       <r>  -20.4374    1.0000 </r>
       <r>  -20.4333    1.0000 </r>
       <r>  -20.4333    1.0000 </r>
       <r>  -17.2874    1.0000 </r>
       <r>  -17.2874    1.0000 </r>
       <r>  -17.2856    1.0000 </r>
       <r>  -17.2856    1.0000 </r>
       <r>  -17.2854    1.0000 </r>
       <r>  -17.2854    1.0000 </r>
       <r>  -17.2813    1.0000 </r>
       <r>  -17.2813    1.0000 </r>
       <r>  -17.2752    1.0000 </r>
       <r>  -17.2752    1.0000 </r>
       <r>  -17.2733    1.0000 </r>
       <r>  -17.2733    1.0000 </r>
       <r>  -17.2725    1.0000 </r>
       <r>  -17.2725    1.0000 </r>
       <r>  -17.2719    1.0000 </r>
       <r>  -17.2719    1.0000 </r>
       <r>  -17.2718    1.0000 </r>
       <r>  -17.2718    1.0000 </r>
       <r>  -17.2715    1.0000 </r>
       <r>  -17.2715    1.0000 </r>
       <r>  -17.2710    1.0000 </r>
       <r>  -17.2710    1.0000 </r>
       <r>  -17.2698    1.0000 </r>
       <r>  -17.2698    1.0000 </r>
       <r>  -17.2586    1.0000 </r>
       <r>  -17.2586    1.0000 </r>
       <r>  -17.2583    1.0000 </r>
       <r>  -17.2583    1.0000 </r>
       <r>  -17.2572    1.0000 </r>
       <r>  -17.2572    1.0000 </r>
       <r>  -17.2570    1.0000 </r>
       <r>  -17.2570    1.0000 </r>
       <r>  -17.2519    1.0000 </r>
       <r>  -17.2519    1.0000 </r>
       <r>  -17.2518    1.0000 </r>
       <r>  -17.2518    1.0000 </r>
       <r>  -17.2512    1.0000 </r>
       <r>  -17.2512    1.0000 </r>
       <r>  -17.2511    1.0000 </r>
       <r>  -17.2511    1.0000 </r>
       <r>  -14.8049    1.0000 </r>
       <r>  -14.8049    1.0000 </r>
       <r>  -14.7860    1.0000 </r>
       <r>  -14.7860    1.0000 </r>
       <r>  -14.7598    1.0000 </r>
       <r>  -14.7598    1.0000 </r>
       <r>  -14.7498    1.0000 </r>
       <r>  -14.7498    1.0000 </r>
       <r>  -14.4260    1.0000 </r>
       <r>  -14.4260    1.0000 </r>
       <r>  -14.3852    1.0000 </r>
       <r>  -14.3852    1.0000 </r>
       <r>  -14.3506    1.0000 </r>
       <r>  -14.3506    1.0000 </r>
       <r>  -14.3309    1.0000 </r>
       <r>  -14.3309    1.0000 </r>
       <r>  -13.9913    1.0000 </r>
       <r>  -13.9913    1.0000 </r>
       <r>  -13.9294    1.0000 </r>
       <r>  -13.9294    1.0000 </r>
       <r>  -13.9092    1.0000 </r>
       <r>  -13.9092    1.0000 </r>
       <r>  -13.8881    1.0000 </r>
       <r>  -13.8881    1.0000 </r>
       <r>   -8.0928    1.0000 </r>
       <r>   -8.0928    1.0000 </r>
       <r>   -8.0194    1.0000 </r>
       <r>   -8.0194    1.0000 </r>
       <r>   -7.9511    1.0000 </r>
       <r>   -7.9511    1.0000 </r>
       <r>   -7.9497    1.0000 </r>
       <r>   -7.9497    1.0000 </r>
       <r>   -7.3839    1.0000 </r>
       <r>   -7.3839    1.0000 </r>
       <r>   -7.3624    1.0000 </r>
       <r>   -7.3624    1.0000 </r>
       <r>   -7.1987    1.0000 </r>
       <r>   -7.1987    1.0000 </r>
       <r>   -7.1307    1.0000 </r>
       <r>   -7.1307    1.0000 </r>
       <r>   -7.0754    1.0000 </r>
       <r>   -7.0754    1.0000 </r>
       <r>   -7.0557    1.0000 </r>
       <r>   -7.0557    1.0000 </r>
       <r>   -6.9913    1.0000 </r>
       <r>   -6.9913    1.0000 </r>
       <r>   -6.8863    1.0000 </r>
       <r>   -6.8863    1.0000 </r>
       <r>   -6.8750    1.0000 </r>
       <r>   -6.8750    1.0000 </r>
       <r>   -6.8449    1.0000 </r>
       <r>   -6.8449    1.0000 </r>
       <r>   -6.7932    1.0000 </r>
       <r>   -6.7932    1.0000 </r>
       <r>   -6.7732    1.0000 </r>
       <r>   -6.7732    1.0000 </r>
       <r>   -2.7279    1.0000 </r>
       <r>   -2.7279    1.0000 </r>
       <r>   -2.6708    1.0000 </r>
       <r>   -2.6708    1.0000 </r>
       <r>   -2.6461    1.0000 </r>
       <r>   -2.6461    1.0000 </r>
       <r>   -2.4996    1.0000 </r>
       <r>   -2.4996    1.0000 </r>
       <r>   -2.4965    1.0000 </r>
       <r>   -2.4965    1.0000 </r>
       <r>   -2.3688    1.0000 </r>
       <r>   -2.3688    1.0000 </r>
       <r>   -2.2490    1.0000 </r>
       <r>   -2.2490    1.0000 </r>
       <r>   -2.1614    1.0000 </r>
       <r>   -2.1614    1.0000 </r>
       <r>   -2.1152    1.0000 </r>
       <r>   -2.1152    1.0000 </r>
       <r>   -2.1112    1.0000 </r>
       <r>   -2.1112    1.0000 </r>
       <r>   -2.0878    1.0000 </r>
       <r>   -2.0878    1.0000 </r>
       <r>   -2.0549    1.0000 </r>
       <r>   -2.0549    1.0000 </r>
       <r>   -1.9690    1.0000 </r>
       <r>   -1.9690    1.0000 </r>
       <r>   -1.8771    1.0000 </r>
       <r>   -1.8771    1.0000 </r>
       <r>   -1.8730    1.0000 </r>
       <r>   -1.8730    1.0000 </r>
       <r>   -1.7873    1.0000 </r>
       <r>   -1.7873    1.0000 </r>
       <r>   -1.7288    1.0000 </r>
       <r>   -1.7288    1.0000 </r>
       <r>   -1.5273    1.0000 </r>
       <r>   -1.5273    1.0000 </r>
       <r>   -1.4740    1.0000 </r>
       <r>   -1.4740    1.0000 </r>
       <r>   -1.4373    1.0000 </r>
       <r>   -1.4373    1.0000 </r>
       <r>   -1.2430    1.0000 </r>
       <r>   -1.2430    1.0000 </r>
       <r>   -1.1731    1.0000 </r>
       <r>   -1.1731    1.0000 </r>
       <r>   -1.1070    1.0000 </r>
       <r>   -1.1070    1.0000 </r>
       <r>   -1.0259    1.0000 </r>
       <r>   -1.0259    1.0000 </r>
       <r>   -0.9535    1.0000 </r>
       <r>   -0.9535    1.0000 </r>
       <r>   -0.9145    1.0000 </r>
       <r>   -0.9145    1.0000 </r>
       <r>   -0.9089    1.0000 </r>
       <r>   -0.9089    1.0000 </r>
       <r>   -0.7576    1.0000 </r>
       <r>   -0.7576    1.0000 </r>
       <r>   -0.6390    1.0000 </r>
       <r>   -0.6390    1.0000 </r>
       <r>   -0.6151    1.0000 </r>
       <r>   -0.6151    1.0000 </r>
       <r>   -0.4934    1.0000 </r>
       <r>   -0.4934    1.0000 </r>
       <r>   -0.4505    1.0000 </r>
       <r>   -0.4505    1.0000 </r>
       <r>    0.0490    1.0000 </r>
       <r>    0.0490    1.0000 </r>
       <r>    0.2259    1.0000 </r>
       <r>    0.2259    1.0000 </r>
       <r>    0.3659    1.0000 </r>
       <r>    0.3659    1.0000 </r>
       <r>    0.5493    1.0000 </r>
       <r>    0.5493    1.0000 </r>
       <r>    2.4126    0.0000 </r>
       <r>    2.4126    0.0000 </r>
       <r>    2.4554    0.0000 </r>
       <r>    2.4554    0.0000 </r>
       <r>    2.5688    0.0000 </r>
       <r>    2.5688    0.0000 </r>
       <r>    2.6826    0.0000 </r>
       <r>    2.6826    0.0000 </r>
       <r>    2.7642    0.0000 </r>
       <r>    2.7642    0.0000 </r>
       <r>    2.8783    0.0000 </r>
       <r>    2.8783    0.0000 </r>
       <r>    2.9450    0.0000 </r>
       <r>    2.9450    0.0000 </r>
       <r>    2.9759    0.0000 </r>
       <r>    2.9759    0.0000 </r>
       <r>    3.3102    0.0000 </r>
       <r>    3.3102    0.0000 </r>
       <r>    3.3906    0.0000 </r>
       <r>    3.3906    0.0000 </r>
       <r>    3.6739    0.0000 </r>
       <r>    3.6739    0.0000 </r>
       <r>    3.7253    0.0000 </r>
       <r>    3.7253    0.0000 </r>
       <r>    5.6953    0.0000 </r>
       <r>    5.6953    0.0000 </r>
       <r>    6.2186    0.0000 </r>
       <r>    6.2186    0.0000 </r>
       <r>    6.3621    0.0000 </r>
       <r>    6.3621    0.0000 </r>
       <r>    6.4257    0.0000 </r>
       <r>    6.4257    0.0000 </r>
       <r>    6.4366    0.0000 </r>
       <r>    6.4366    0.0000 </r>
       <r>    6.5929    0.0000 </r>
       <r>    6.5929    0.0000 </r>
       <r>    6.6070    0.0000 </r>
       <r>    6.6070    0.0000 </r>
       <r>    6.8103    0.0000 </r>
       <r>    6.8112    0.0000 </r>
      </set>
      <set comment="kpoint 3">
       <r>  -20.4405    1.0000 </r>
       <r>  -20.4405    1.0000 </r>
       <r>  -20.4403    1.0000 </r>
       <r>  -20.4403    1.0000 </r>
       <r>  -20.4361    1.0000 </r>
       <r>  -20.4361    1.0000 </r>
       <r>  -20.4360    1.0000 </r>
       <r>  -20.4360    1.0000 </r>
       <r>  -17.2868    1.0000 </r>
       <r>  -17.2868    1.0000 </r>
       <r>  -17.2848    1.0000 </r>
       <r>  -17.2848    1.0000 </r>
       <r>  -17.2829    1.0000 </r>
       <r>  -17.2829    1.0000 </r>
       <r>  -17.2828    1.0000 </r>
       <r>  -17.2828    1.0000 </r>
       <r>  -17.2749    1.0000 </r>
       <r>  -17.2749    1.0000 </r>
       <r>  -17.2742    1.0000 </r>
       <r>  -17.2742    1.0000 </r>
       <r>  -17.2721    1.0000 </r>
       <r>  -17.2721    1.0000 </r>
       <r>  -17.2720    1.0000 </r>
       <r>  -17.2720    1.0000 </r>
       <r>  -17.2719    1.0000 </r>
       <r>  -17.2719    1.0000 </r>
       <r>  -17.2719    1.0000 </r>
       <r>  -17.2719    1.0000 </r>
       <r>  -17.2710    1.0000 </r>
       <r>  -17.2710    1.0000 </r>
       <r>  -17.2709    1.0000 </r>
       <r>  -17.2709    1.0000 </r>
       <r>  -17.2586    1.0000 </r>
       <r>  -17.2586    1.0000 </r>
       <r>  -17.2584    1.0000 </r>
       <r>  -17.2584    1.0000 </r>
       <r>  -17.2572    1.0000 </r>
       <r>  -17.2572    1.0000 </r>
       <r>  -17.2571    1.0000 </r>
       <r>  -17.2571    1.0000 </r>
       <r>  -17.2519    1.0000 </r>
       <r>  -17.2519    1.0000 </r>
       <r>  -17.2519    1.0000 </r>
       <r>  -17.2519    1.0000 </r>
       <r>  -17.2512    1.0000 </r>
       <r>  -17.2512    1.0000 </r>
       <r>  -17.2512    1.0000 </r>
       <r>  -17.2512    1.0000 </r>
       <r>  -14.8078    1.0000 </r>
       <r>  -14.8077    1.0000 </r>
       <r>  -14.7847    1.0000 </r>
       <r>  -14.7847    1.0000 </r>
       <r>  -14.7647    1.0000 </r>
       <r>  -14.7647    1.0000 </r>
       <r>  -14.7423    1.0000 </r>
       <r>  -14.7423    1.0000 </r>
       <r>  -14.4167    1.0000 </r>
       <r>  -14.4167    1.0000 </r>
       <r>  -14.3997    1.0000 </r>
       <r>  -14.3997    1.0000 </r>
       <r>  -14.3471    1.0000 </r>
       <r>  -14.3471    1.0000 </r>
       <r>  -14.3292    1.0000 </r>
       <r>  -14.3292    1.0000 </r>
       <r>  -13.9807    1.0000 </r>
       <r>  -13.9807    1.0000 </r>
       <r>  -13.9457    1.0000 </r>
       <r>  -13.9457    1.0000 </r>
       <r>  -13.9088    1.0000 </r>
       <r>  -13.9088    1.0000 </r>
       <r>  -13.8843    1.0000 </r>
       <r>  -13.8843    1.0000 </r>
       <r>   -8.0939    1.0000 </r>
       <r>   -8.0939    1.0000 </r>
       <r>   -7.9998    1.0000 </r>
       <r>   -7.9998    1.0000 </r>
       <r>   -7.9656    1.0000 </r>
       <r>   -7.9656    1.0000 </r>
       <r>   -7.9275    1.0000 </r>
       <r>   -7.9275    1.0000 </r>
       <r>   -7.3722    1.0000 </r>
       <r>   -7.3722    1.0000 </r>
       <r>   -7.3678    1.0000 </r>
       <r>   -7.3677    1.0000 </r>
       <r>   -7.2908    1.0000 </r>
       <r>   -7.2908    1.0000 </r>
       <r>   -7.0890    1.0000 </r>
       <r>   -7.0890    1.0000 </r>
       <r>   -7.0589    1.0000 </r>
       <r>   -7.0589    1.0000 </r>
       <r>   -7.0397    1.0000 </r>
       <r>   -7.0396    1.0000 </r>
       <r>   -6.9766    1.0000 </r>
       <r>   -6.9766    1.0000 </r>
       <r>   -6.9096    1.0000 </r>
       <r>   -6.9096    1.0000 </r>
       <r>   -6.8927    1.0000 </r>
       <r>   -6.8927    1.0000 </r>
       <r>   -6.8592    1.0000 </r>
       <r>   -6.8592    1.0000 </r>
       <r>   -6.7958    1.0000 </r>
       <r>   -6.7958    1.0000 </r>
       <r>   -6.7556    1.0000 </r>
       <r>   -6.7556    1.0000 </r>
       <r>   -2.7309    1.0000 </r>
       <r>   -2.7309    1.0000 </r>
       <r>   -2.5886    1.0000 </r>
       <r>   -2.5886    1.0000 </r>
       <r>   -2.4983    1.0000 </r>
       <r>   -2.4983    1.0000 </r>
       <r>   -2.4221    1.0000 </r>
       <r>   -2.4221    1.0000 </r>
       <r>   -2.4100    1.0000 </r>
       <r>   -2.4100    1.0000 </r>
       <r>   -2.3866    1.0000 </r>
       <r>   -2.3866    1.0000 </r>
       <r>   -2.3172    1.0000 </r>
       <r>   -2.3172    1.0000 </r>
       <r>   -2.1583    1.0000 </r>
       <r>   -2.1583    1.0000 </r>
       <r>   -2.1536    1.0000 </r>
       <r>   -2.1536    1.0000 </r>
       <r>   -2.1514    1.0000 </r>
       <r>   -2.1514    1.0000 </r>
       <r>   -2.0760    1.0000 </r>
       <r>   -2.0760    1.0000 </r>
       <r>   -2.0678    1.0000 </r>
       <r>   -2.0678    1.0000 </r>
       <r>   -2.0207    1.0000 </r>
       <r>   -2.0207    1.0000 </r>
       <r>   -1.9524    1.0000 </r>
       <r>   -1.9524    1.0000 </r>
       <r>   -1.8826    1.0000 </r>
       <r>   -1.8826    1.0000 </r>
       <r>   -1.8167    1.0000 </r>
       <r>   -1.8167    1.0000 </r>
       <r>   -1.7318    1.0000 </r>
       <r>   -1.7318    1.0000 </r>
       <r>   -1.6873    1.0000 </r>
       <r>   -1.6873    1.0000 </r>
       <r>   -1.6470    1.0000 </r>
       <r>   -1.6470    1.0000 </r>
       <r>   -1.3830    1.0000 </r>
       <r>   -1.3830    1.0000 </r>
       <r>   -1.2068    1.0000 </r>
       <r>   -1.2068    1.0000 </r>
       <r>   -1.1788    1.0000 </r>
       <r>   -1.1788    1.0000 </r>
       <r>   -1.0779    1.0000 </r>
       <r>   -1.0779    1.0000 </r>
       <r>   -1.0749    1.0000 </r>
       <r>   -1.0749    1.0000 </r>
       <r>   -0.9291    1.0000 </r>
       <r>   -0.9291    1.0000 </r>
       <r>   -0.9112    1.0000 </r>
       <r>   -0.9112    1.0000 </r>
       <r>   -0.7766    1.0000 </r>
       <r>   -0.7766    1.0000 </r>
       <r>   -0.7551    1.0000 </r>
       <r>   -0.7551    1.0000 </r>
       <r>   -0.6367    1.0000 </r>
       <r>   -0.6367    1.0000 </r>
       <r>   -0.6085    1.0000 </r>
       <r>   -0.6085    1.0000 </r>
       <r>   -0.5527    1.0000 </r>
       <r>   -0.5527    1.0000 </r>
       <r>   -0.3723    1.0000 </r>
       <r>   -0.3723    1.0000 </r>
       <r>    0.1411    1.0000 </r>
       <r>    0.1411    1.0000 </r>
       <r>    0.1818    1.0000 </r>
       <r>    0.1818    1.0000 </r>
       <r>    0.2961    1.0000 </r>
       <r>    0.2961    1.0000 </r>
       <r>    0.5390    1.0000 </r>
       <r>    0.5390    1.0000 </r>
       <r>    2.5609    0.0000 </r>
       <r>    2.5609    0.0000 </r>
       <r>    2.5763    0.0000 </r>
       <r>    2.5763    0.0000 </r>
       <r>    2.6876    0.0000 </r>
       <r>    2.6876    0.0000 </r>
       <r>    2.7509    0.0000 </r>
       <r>    2.7509    0.0000 </r>
       <r>    2.8364    0.0000 </r>
       <r>    2.8364    0.0000 </r>
       <r>    2.8481    0.0000 </r>
       <r>    2.8481    0.0000 </r>
       <r>    3.0421    0.0000 </r>
       <r>    3.0421    0.0000 </r>
       <r>    3.1180    0.0000 </r>
       <r>    3.1180    0.0000 </r>
       <r>    3.1867    0.0000 </r>
       <r>    3.1867    0.0000 </r>
       <r>    3.1976    0.0000 </r>
       <r>    3.1976    0.0000 </r>
       <r>    3.4082    0.0000 </r>
       <r>    3.4082    0.0000 </r>
       <r>    3.4930    0.0000 </r>
       <r>    3.4930    0.0000 </r>
       <r>    6.0241    0.0000 </r>
       <r>    6.0241    0.0000 </r>
       <r>    6.0553    0.0000 </r>
       <r>    6.0553    0.0000 </r>
       <r>    6.1279    0.0000 </r>
       <r>    6.1279    0.0000 </r>
       <r>    6.5033    0.0000 </r>
       <r>    6.5033    0.0000 </r>
       <r>    6.5478    0.0000 </r>
       <r>    6.5478    0.0000 </r>
       <r>    6.5684    0.0000 </r>
       <r>    6.5685    0.0000 </r>
       <r>    6.6874    0.0000 </r>
       <r>    6.6875    0.0000 </r>
       <r>    6.6884    0.0000 </r>
       <r>    6.6898    0.0000 </r>
      </set>
      <set comment="kpoint 4">
       <r>  -20.4440    1.0000 </r>
       <r>  -20.4440    1.0000 </r>
       <r>  -20.4381    1.0000 </r>
       <r>  -20.4381    1.0000 </r>
       <r>  -20.4381    1.0000 </r>
       <r>  -20.4380    1.0000 </r>
       <r>  -20.4327    1.0000 </r>
       <r>  -20.4327    1.0000 </r>
       <r>  -17.2890    1.0000 </r>
       <r>  -17.2890    1.0000 </r>
       <r>  -17.2844    1.0000 </r>
       <r>  -17.2844    1.0000 </r>
       <r>  -17.2844    1.0000 </r>
       <r>  -17.2844    1.0000 </r>
       <r>  -17.2831    1.0000 </r>
       <r>  -17.2831    1.0000 </r>
       <r>  -17.2739    1.0000 </r>
       <r>  -17.2739    1.0000 </r>
       <r>  -17.2732    1.0000 </r>
       <r>  -17.2732    1.0000 </r>
       <r>  -17.2732    1.0000 </r>
       <r>  -17.2732    1.0000 </r>
       <r>  -17.2721    1.0000 </r>
       <r>  -17.2721    1.0000 </r>
       <r>  -17.2713    1.0000 </r>
       <r>  -17.2713    1.0000 </r>
       <r>  -17.2709    1.0000 </r>
       <r>  -17.2709    1.0000 </r>
       <r>  -17.2709    1.0000 </r>
       <r>  -17.2709    1.0000 </r>
       <r>  -17.2701    1.0000 </r>
       <r>  -17.2701    1.0000 </r>
       <r>  -17.2579    1.0000 </r>
       <r>  -17.2579    1.0000 </r>
       <r>  -17.2579    1.0000 </r>
       <r>  -17.2579    1.0000 </r>
       <r>  -17.2576    1.0000 </r>
       <r>  -17.2576    1.0000 </r>
       <r>  -17.2576    1.0000 </r>
       <r>  -17.2576    1.0000 </r>
       <r>  -17.2518    1.0000 </r>
       <r>  -17.2518    1.0000 </r>
       <r>  -17.2515    1.0000 </r>
       <r>  -17.2515    1.0000 </r>
       <r>  -17.2514    1.0000 </r>
       <r>  -17.2514    1.0000 </r>
       <r>  -17.2514    1.0000 </r>
       <r>  -17.2514    1.0000 </r>
       <r>  -14.7871    1.0000 </r>
       <r>  -14.7870    1.0000 </r>
       <r>  -14.7870    1.0000 </r>
       <r>  -14.7870    1.0000 </r>
       <r>  -14.7815    1.0000 </r>
       <r>  -14.7815    1.0000 </r>
       <r>  -14.7458    1.0000 </r>
       <r>  -14.7458    1.0000 </r>
       <r>  -14.4171    1.0000 </r>
       <r>  -14.4171    1.0000 </r>
       <r>  -14.3741    1.0000 </r>
       <r>  -14.3741    1.0000 </r>
       <r>  -14.3741    1.0000 </r>
       <r>  -14.3741    1.0000 </r>
       <r>  -14.3320    1.0000 </r>
       <r>  -14.3320    1.0000 </r>
       <r>  -13.9830    1.0000 </r>
       <r>  -13.9830    1.0000 </r>
       <r>  -13.9140    1.0000 </r>
       <r>  -13.9139    1.0000 </r>
       <r>  -13.9139    1.0000 </r>
       <r>  -13.9139    1.0000 </r>
       <r>  -13.9012    1.0000 </r>
       <r>  -13.9012    1.0000 </r>
       <r>   -8.0685    1.0000 </r>
       <r>   -8.0685    1.0000 </r>
       <r>   -8.0626    1.0000 </r>
       <r>   -8.0626    1.0000 </r>
       <r>   -8.0626    1.0000 </r>
       <r>   -8.0626    1.0000 </r>
       <r>   -7.8205    1.0000 </r>
       <r>   -7.8205    1.0000 </r>
       <r>   -7.3321    1.0000 </r>
       <r>   -7.3321    1.0000 </r>
       <r>   -7.3178    1.0000 </r>
       <r>   -7.3178    1.0000 </r>
       <r>   -7.2374    1.0000 </r>
       <r>   -7.2374    1.0000 </r>
       <r>   -7.2374    1.0000 </r>
       <r>   -7.2374    1.0000 </r>
       <r>   -7.0797    1.0000 </r>
       <r>   -7.0797    1.0000 </r>
       <r>   -6.9867    1.0000 </r>
       <r>   -6.9867    1.0000 </r>
       <r>   -6.9355    1.0000 </r>
       <r>   -6.9355    1.0000 </r>
       <r>   -6.9355    1.0000 </r>
       <r>   -6.9355    1.0000 </r>
       <r>   -6.8500    1.0000 </r>
       <r>   -6.8499    1.0000 </r>
       <r>   -6.8459    1.0000 </r>
       <r>   -6.8459    1.0000 </r>
       <r>   -6.8459    1.0000 </r>
       <r>   -6.8459    1.0000 </r>
       <r>   -6.7649    1.0000 </r>
       <r>   -6.7649    1.0000 </r>
       <r>   -2.7237    1.0000 </r>
       <r>   -2.7237    1.0000 </r>
       <r>   -2.6515    1.0000 </r>
       <r>   -2.6515    1.0000 </r>
       <r>   -2.6515    1.0000 </r>
       <r>   -2.6515    1.0000 </r>
       <r>   -2.5588    1.0000 </r>
       <r>   -2.5588    1.0000 </r>
       <r>   -2.4117    1.0000 </r>
       <r>   -2.4117    1.0000 </r>
       <r>   -2.4117    1.0000 </r>
       <r>   -2.4117    1.0000 </r>
       <r>   -2.2732    1.0000 </r>
       <r>   -2.2732    1.0000 </r>
       <r>   -2.2598    1.0000 </r>
       <r>   -2.2598    1.0000 </r>
       <r>   -2.2565    1.0000 </r>
       <r>   -2.2565    1.0000 </r>
       <r>   -2.0673    1.0000 </r>
       <r>   -2.0673    1.0000 </r>
       <r>   -2.0673    1.0000 </r>
       <r>   -2.0673    1.0000 </r>
       <r>   -2.0003    1.0000 </r>
       <r>   -2.0003    1.0000 </r>
       <r>   -1.9342    1.0000 </r>
       <r>   -1.9342    1.0000 </r>
       <r>   -1.7936    1.0000 </r>
       <r>   -1.7936    1.0000 </r>
       <r>   -1.7207    1.0000 </r>
       <r>   -1.7207    1.0000 </r>
       <r>   -1.7207    1.0000 </r>
       <r>   -1.7207    1.0000 </r>
       <r>   -1.6461    1.0000 </r>
       <r>   -1.6461    1.0000 </r>
       <r>   -1.6461    1.0000 </r>
       <r>   -1.6461    1.0000 </r>
       <r>   -1.5868    1.0000 </r>
       <r>   -1.5868    1.0000 </r>
       <r>   -1.3991    1.0000 </r>
       <r>   -1.3991    1.0000 </r>
       <r>   -1.1343    1.0000 </r>
       <r>   -1.1343    1.0000 </r>
       <r>   -1.1332    1.0000 </r>
       <r>   -1.1332    1.0000 </r>
       <r>   -1.1332    1.0000 </r>
       <r>   -1.1332    1.0000 </r>
       <r>   -1.1205    1.0000 </r>
       <r>   -1.1205    1.0000 </r>
       <r>   -0.9959    1.0000 </r>
       <r>   -0.9959    1.0000 </r>
       <r>   -0.9219    1.0000 </r>
       <r>   -0.9219    1.0000 </r>
       <r>   -0.9219    1.0000 </r>
       <r>   -0.9219    1.0000 </r>
       <r>   -0.8238    1.0000 </r>
       <r>   -0.8238    1.0000 </r>
       <r>   -0.6158    1.0000 </r>
       <r>   -0.6158    1.0000 </r>
       <r>   -0.6078    1.0000 </r>
       <r>   -0.6078    1.0000 </r>
       <r>   -0.6078    1.0000 </r>
       <r>   -0.6078    1.0000 </r>
       <r>   -0.5292    1.0000 </r>
       <r>   -0.5292    1.0000 </r>
       <r>    0.2615    1.0000 </r>
       <r>    0.2615    1.0000 </r>
       <r>    0.3800    1.0000 </r>
       <r>    0.3800    1.0000 </r>
       <r>    0.3800    1.0000 </r>
       <r>    0.3800    1.0000 </r>
       <r>    0.3805    1.0000 </r>
       <r>    0.3805    1.0000 </r>
       <r>    2.3735    0.0000 </r>
       <r>    2.3735    0.0000 </r>
       <r>    2.4064    0.0000 </r>
       <r>    2.4064    0.0000 </r>
       <r>    2.5806    0.0000 </r>
       <r>    2.5806    0.0000 </r>
       <r>    2.5806    0.0000 </r>
       <r>    2.5806    0.0000 </r>
       <r>    2.8353    0.0000 </r>
       <r>    2.8353    0.0000 </r>
       <r>    2.8623    0.0000 </r>
       <r>    2.8623    0.0000 </r>
       <r>    2.8623    0.0000 </r>
       <r>    2.8623    0.0000 </r>
       <r>    2.9773    0.0000 </r>
       <r>    2.9773    0.0000 </r>
       <r>    3.4012    0.0000 </r>
       <r>    3.4012    0.0000 </r>
       <r>    3.4958    0.0000 </r>
       <r>    3.4958    0.0000 </r>
       <r>    3.4958    0.0000 </r>
       <r>    3.4958    0.0000 </r>
       <r>    3.9304    0.0000 </r>
       <r>    3.9304    0.0000 </r>
       <r>    5.6322    0.0000 </r>
       <r>    5.6322    0.0000 </r>
       <r>    6.3338    0.0000 </r>
       <r>    6.3338    0.0000 </r>
       <r>    6.3338    0.0000 </r>
       <r>    6.3338    0.0000 </r>
       <r>    6.5588    0.0000 </r>
       <r>    6.5588    0.0000 </r>
       <r>    6.5588    0.0000 </r>
       <r>    6.5588    0.0000 </r>
       <r>    6.5637    0.0000 </r>
       <r>    6.5637    0.0000 </r>
       <r>    6.6177    0.0000 </r>
       <r>    6.6177    0.0000 </r>
       <r>    6.6753    0.0000 </r>
       <r>    6.6753    0.0000 </r>
      </set>
      <set comment="kpoint 5">
       <r>  -20.4410    1.0000 </r>
       <r>  -20.4410    1.0000 </r>
       <r>  -20.4410    1.0000 </r>
       <r>  -20.4410    1.0000 </r>
       <r>  -20.4354    1.0000 </r>
       <r>  -20.4354    1.0000 </r>
       <r>  -20.4354    1.0000 </r>
       <r>  -20.4354    1.0000 </r>
       <r>  -17.2863    1.0000 </r>
       <r>  -17.2863    1.0000 </r>
       <r>  -17.2863    1.0000 </r>
       <r>  -17.2863    1.0000 </r>
       <r>  -17.2830    1.0000 </r>
       <r>  -17.2830    1.0000 </r>
       <r>  -17.2830    1.0000 </r>
       <r>  -17.2830    1.0000 </r>
       <r>  -17.2737    1.0000 </r>
       <r>  -17.2737    1.0000 </r>
       <r>  -17.2737    1.0000 </r>
       <r>  -17.2737    1.0000 </r>
       <r>  -17.2724    1.0000 </r>
       <r>  -17.2724    1.0000 </r>
       <r>  -17.2724    1.0000 </r>
       <r>  -17.2724    1.0000 </r>
       <r>  -17.2717    1.0000 </r>
       <r>  -17.2717    1.0000 </r>
       <r>  -17.2717    1.0000 </r>
       <r>  -17.2717    1.0000 </r>
       <r>  -17.2709    1.0000 </r>
       <r>  -17.2709    1.0000 </r>
       <r>  -17.2709    1.0000 </r>
       <r>  -17.2709    1.0000 </r>
       <r>  -17.2580    1.0000 </r>
       <r>  -17.2580    1.0000 </r>
       <r>  -17.2580    1.0000 </r>
       <r>  -17.2580    1.0000 </r>
       <r>  -17.2577    1.0000 </r>
       <r>  -17.2577    1.0000 </r>
       <r>  -17.2577    1.0000 </r>
       <r>  -17.2577    1.0000 </r>
       <r>  -17.2516    1.0000 </r>
       <r>  -17.2516    1.0000 </r>
       <r>  -17.2516    1.0000 </r>
       <r>  -17.2516    1.0000 </r>
       <r>  -17.2515    1.0000 </r>
       <r>  -17.2515    1.0000 </r>
       <r>  -17.2515    1.0000 </r>
       <r>  -17.2515    1.0000 </r>
       <r>  -14.7864    1.0000 </r>
       <r>  -14.7864    1.0000 </r>
       <r>  -14.7864    1.0000 </r>
       <r>  -14.7864    1.0000 </r>
       <r>  -14.7647    1.0000 </r>
       <r>  -14.7647    1.0000 </r>
       <r>  -14.7647    1.0000 </r>
       <r>  -14.7647    1.0000 </r>
       <r>  -14.4034    1.0000 </r>
       <r>  -14.4034    1.0000 </r>
       <r>  -14.4034    1.0000 </r>
       <r>  -14.4034    1.0000 </r>
       <r>  -14.3451    1.0000 </r>
       <r>  -14.3451    1.0000 </r>
       <r>  -14.3451    1.0000 </r>
       <r>  -14.3451    1.0000 </r>
       <r>  -13.9499    1.0000 </r>
       <r>  -13.9499    1.0000 </r>
       <r>  -13.9499    1.0000 </r>
       <r>  -13.9499    1.0000 </r>
       <r>  -13.9062    1.0000 </r>
       <r>  -13.9062    1.0000 </r>
       <r>  -13.9062    1.0000 </r>
       <r>  -13.9062    1.0000 </r>
       <r>   -8.0731    1.0000 </r>
       <r>   -8.0731    1.0000 </r>
       <r>   -8.0731    1.0000 </r>
       <r>   -8.0731    1.0000 </r>
       <r>   -7.9376    1.0000 </r>
       <r>   -7.9376    1.0000 </r>
       <r>   -7.9376    1.0000 </r>
       <r>   -7.9376    1.0000 </r>
       <r>   -7.3238    1.0000 </r>
       <r>   -7.3238    1.0000 </r>
       <r>   -7.3238    1.0000 </r>
       <r>   -7.3238    1.0000 </r>
       <r>   -7.2118    1.0000 </r>
       <r>   -7.2118    1.0000 </r>
       <r>   -7.2118    1.0000 </r>
       <r>   -7.2118    1.0000 </r>
       <r>   -7.0485    1.0000 </r>
       <r>   -7.0485    1.0000 </r>
       <r>   -7.0484    1.0000 </r>
       <r>   -7.0484    1.0000 </r>
       <r>   -6.9711    1.0000 </r>
       <r>   -6.9711    1.0000 </r>
       <r>   -6.9711    1.0000 </r>
       <r>   -6.9711    1.0000 </r>
       <r>   -6.8405    1.0000 </r>
       <r>   -6.8405    1.0000 </r>
       <r>   -6.8405    1.0000 </r>
       <r>   -6.8405    1.0000 </r>
       <r>   -6.7906    1.0000 </r>
       <r>   -6.7906    1.0000 </r>
       <r>   -6.7906    1.0000 </r>
       <r>   -6.7906    1.0000 </r>
       <r>   -2.6199    1.0000 </r>
       <r>   -2.6199    1.0000 </r>
       <r>   -2.6199    1.0000 </r>
       <r>   -2.6199    1.0000 </r>
       <r>   -2.5339    1.0000 </r>
       <r>   -2.5339    1.0000 </r>
       <r>   -2.5339    1.0000 </r>
       <r>   -2.5339    1.0000 </r>
       <r>   -2.4176    1.0000 </r>
       <r>   -2.4176    1.0000 </r>
       <r>   -2.4176    1.0000 </r>
       <r>   -2.4176    1.0000 </r>
       <r>   -2.2811    1.0000 </r>
       <r>   -2.2811    1.0000 </r>
       <r>   -2.2811    1.0000 </r>
       <r>   -2.2811    1.0000 </r>
       <r>   -2.1287    1.0000 </r>
       <r>   -2.1287    1.0000 </r>
       <r>   -2.1287    1.0000 </r>
       <r>   -2.1287    1.0000 </r>
       <r>   -2.0612    1.0000 </r>
       <r>   -2.0612    1.0000 </r>
       <r>   -2.0612    1.0000 </r>
       <r>   -2.0612    1.0000 </r>
       <r>   -1.9468    1.0000 </r>
       <r>   -1.9468    1.0000 </r>
       <r>   -1.9468    1.0000 </r>
       <r>   -1.9468    1.0000 </r>
       <r>   -1.8487    1.0000 </r>
       <r>   -1.8487    1.0000 </r>
       <r>   -1.8487    1.0000 </r>
       <r>   -1.8487    1.0000 </r>
       <r>   -1.6420    1.0000 </r>
       <r>   -1.6420    1.0000 </r>
       <r>   -1.6420    1.0000 </r>
       <r>   -1.6420    1.0000 </r>
       <r>   -1.4927    1.0000 </r>
       <r>   -1.4927    1.0000 </r>
       <r>   -1.4927    1.0000 </r>
       <r>   -1.4927    1.0000 </r>
       <r>   -1.1626    1.0000 </r>
       <r>   -1.1626    1.0000 </r>
       <r>   -1.1626    1.0000 </r>
       <r>   -1.1626    1.0000 </r>
       <r>   -1.0699    1.0000 </r>
       <r>   -1.0699    1.0000 </r>
       <r>   -1.0699    1.0000 </r>
       <r>   -1.0699    1.0000 </r>
       <r>   -1.0077    1.0000 </r>
       <r>   -1.0077    1.0000 </r>
       <r>   -1.0077    1.0000 </r>
       <r>   -1.0077    1.0000 </r>
       <r>   -0.8683    1.0000 </r>
       <r>   -0.8683    1.0000 </r>
       <r>   -0.8682    1.0000 </r>
       <r>   -0.8682    1.0000 </r>
       <r>   -0.5835    1.0000 </r>
       <r>   -0.5835    1.0000 </r>
       <r>   -0.5835    1.0000 </r>
       <r>   -0.5835    1.0000 </r>
       <r>   -0.4784    1.0000 </r>
       <r>   -0.4784    1.0000 </r>
       <r>   -0.4784    1.0000 </r>
       <r>   -0.4784    1.0000 </r>
       <r>    0.2258    1.0000 </r>
       <r>    0.2258    1.0000 </r>
       <r>    0.2259    1.0000 </r>
       <r>    0.2259    1.0000 </r>
       <r>    0.4309    1.0000 </r>
       <r>    0.4309    1.0000 </r>
       <r>    0.4309    1.0000 </r>
       <r>    0.4309    1.0000 </r>
       <r>    2.5029    0.0000 </r>
       <r>    2.5029    0.0000 </r>
       <r>    2.5029    0.0000 </r>
       <r>    2.5029    0.0000 </r>
       <r>    2.6861    0.0000 </r>
       <r>    2.6861    0.0000 </r>
       <r>    2.6861    0.0000 </r>
       <r>    2.6861    0.0000 </r>
       <r>    2.8914    0.0000 </r>
       <r>    2.8914    0.0000 </r>
       <r>    2.8914    0.0000 </r>
       <r>    2.8914    0.0000 </r>
       <r>    3.0284    0.0000 </r>
       <r>    3.0284    0.0000 </r>
       <r>    3.0284    0.0000 </r>
       <r>    3.0284    0.0000 </r>
       <r>    3.1187    0.0000 </r>
       <r>    3.1187    0.0000 </r>
       <r>    3.1187    0.0000 </r>
       <r>    3.1187    0.0000 </r>
       <r>    3.6327    0.0000 </r>
       <r>    3.6327    0.0000 </r>
       <r>    3.6327    0.0000 </r>
       <r>    3.6327    0.0000 </r>
       <r>    6.0243    0.0000 </r>
       <r>    6.0243    0.0000 </r>
       <r>    6.0243    0.0000 </r>
       <r>    6.0243    0.0000 </r>
       <r>    6.4219    0.0000 </r>
       <r>    6.4219    0.0000 </r>
       <r>    6.4219    0.0000 </r>
       <r>    6.4219    0.0000 </r>
       <r>    6.6076    0.0000 </r>
       <r>    6.6076    0.0000 </r>
       <r>    6.6076    0.0000 </r>
       <r>    6.6077    0.0000 </r>
       <r>    6.7552    0.0000 </r>
       <r>    6.7553    0.0000 </r>
       <r>    6.7561    0.0000 </r>
       <r>    6.7755    0.0000 </r>
      </set>
      <set comment="kpoint 6">
       <r>  -20.4385    1.0000 </r>
       <r>  -20.4385    1.0000 </r>
       <r>  -20.4383    1.0000 </r>
       <r>  -20.4383    1.0000 </r>
       <r>  -20.4383    1.0000 </r>
       <r>  -20.4382    1.0000 </r>
       <r>  -20.4378    1.0000 </r>
       <r>  -20.4378    1.0000 </r>
       <r>  -17.2845    1.0000 </r>
       <r>  -17.2845    1.0000 </r>
       <r>  -17.2845    1.0000 </r>
       <r>  -17.2845    1.0000 </r>
       <r>  -17.2838    1.0000 </r>
       <r>  -17.2838    1.0000 </r>
       <r>  -17.2833    1.0000 </r>
       <r>  -17.2833    1.0000 </r>
       <r>  -17.2736    1.0000 </r>
       <r>  -17.2736    1.0000 </r>
       <r>  -17.2730    1.0000 </r>
       <r>  -17.2730    1.0000 </r>
       <r>  -17.2730    1.0000 </r>
       <r>  -17.2730    1.0000 </r>
       <r>  -17.2730    1.0000 </r>
       <r>  -17.2730    1.0000 </r>
       <r>  -17.2718    1.0000 </r>
       <r>  -17.2718    1.0000 </r>
       <r>  -17.2717    1.0000 </r>
       <r>  -17.2717    1.0000 </r>
       <r>  -17.2717    1.0000 </r>
       <r>  -17.2717    1.0000 </r>
       <r>  -17.2717    1.0000 </r>
       <r>  -17.2717    1.0000 </r>
       <r>  -17.2580    1.0000 </r>
       <r>  -17.2580    1.0000 </r>
       <r>  -17.2580    1.0000 </r>
       <r>  -17.2580    1.0000 </r>
       <r>  -17.2580    1.0000 </r>
       <r>  -17.2580    1.0000 </r>
       <r>  -17.2577    1.0000 </r>
       <r>  -17.2577    1.0000 </r>
       <r>  -17.2516    1.0000 </r>
       <r>  -17.2516    1.0000 </r>
       <r>  -17.2516    1.0000 </r>
       <r>  -17.2516    1.0000 </r>
       <r>  -17.2515    1.0000 </r>
       <r>  -17.2515    1.0000 </r>
       <r>  -17.2515    1.0000 </r>
       <r>  -17.2515    1.0000 </r>
       <r>  -14.8005    1.0000 </r>
       <r>  -14.8005    1.0000 </r>
       <r>  -14.7731    1.0000 </r>
       <r>  -14.7731    1.0000 </r>
       <r>  -14.7639    1.0000 </r>
       <r>  -14.7639    1.0000 </r>
       <r>  -14.7639    1.0000 </r>
       <r>  -14.7639    1.0000 </r>
       <r>  -14.4132    1.0000 </r>
       <r>  -14.4132    1.0000 </r>
       <r>  -14.3752    1.0000 </r>
       <r>  -14.3752    1.0000 </r>
       <r>  -14.3752    1.0000 </r>
       <r>  -14.3752    1.0000 </r>
       <r>  -14.3331    1.0000 </r>
       <r>  -14.3331    1.0000 </r>
       <r>  -13.9426    1.0000 </r>
       <r>  -13.9425    1.0000 </r>
       <r>  -13.9425    1.0000 </r>
       <r>  -13.9425    1.0000 </r>
       <r>  -13.9322    1.0000 </r>
       <r>  -13.9322    1.0000 </r>
       <r>  -13.8964    1.0000 </r>
       <r>  -13.8964    1.0000 </r>
       <r>   -8.1167    1.0000 </r>
       <r>   -8.1167    1.0000 </r>
       <r>   -7.9829    1.0000 </r>
       <r>   -7.9829    1.0000 </r>
       <r>   -7.9462    1.0000 </r>
       <r>   -7.9462    1.0000 </r>
       <r>   -7.9462    1.0000 </r>
       <r>   -7.9462    1.0000 </r>
       <r>   -7.3281    1.0000 </r>
       <r>   -7.3281    1.0000 </r>
       <r>   -7.3280    1.0000 </r>
       <r>   -7.3280    1.0000 </r>
       <r>   -7.3179    1.0000 </r>
       <r>   -7.3179    1.0000 </r>
       <r>   -7.1089    1.0000 </r>
       <r>   -7.1089    1.0000 </r>
       <r>   -7.0678    1.0000 </r>
       <r>   -7.0678    1.0000 </r>
       <r>   -7.0304    1.0000 </r>
       <r>   -7.0304    1.0000 </r>
       <r>   -7.0304    1.0000 </r>
       <r>   -7.0304    1.0000 </r>
       <r>   -6.9110    1.0000 </r>
       <r>   -6.9110    1.0000 </r>
       <r>   -6.8867    1.0000 </r>
       <r>   -6.8867    1.0000 </r>
       <r>   -6.8015    1.0000 </r>
       <r>   -6.8015    1.0000 </r>
       <r>   -6.8014    1.0000 </r>
       <r>   -6.8014    1.0000 </r>
       <r>   -6.8005    1.0000 </r>
       <r>   -6.8005    1.0000 </r>
       <r>   -2.5350    1.0000 </r>
       <r>   -2.5350    1.0000 </r>
       <r>   -2.4872    1.0000 </r>
       <r>   -2.4872    1.0000 </r>
       <r>   -2.4157    1.0000 </r>
       <r>   -2.4157    1.0000 </r>
[...]
        <r>  0.0033  0.0025  0.0188 </r>
        <r>  0.0000  0.0002  0.0071 </r>
        <r>  0.0033  0.0025  0.0188 </r>
        <r>  0.0000  0.0002  0.0071 </r>
        <r>  0.0001  0.0011  0.0087 </r>
        <r>  0.0006  0.0011  0.0038 </r>
        <r>  0.0006  0.0028  0.0009 </r>
        <r>  0.0001  0.0002  0.0004 </r>
        <r>  0.0007  0.0038  0.0017 </r>
        <r>  0.0001  0.0011  0.0012 </r>
        <r>  0.0007  0.0038  0.0017 </r>
        <r>  0.0001  0.0011  0.0012 </r>
        <r>  0.0006  0.0028  0.0009 </r>
        <r>  0.0001  0.0002  0.0004 </r>
        <r>  0.0010  0.0015  0.0035 </r>
        <r>  0.0005  0.0024  0.0024 </r>
        <r>  0.0009  0.0020  0.0019 </r>
        <r>  0.0000  0.0021  0.0005 </r>
        <r>  0.0009  0.0020  0.0019 </r>
        <r>  0.0000  0.0021  0.0005 </r>
        <r>  0.0010  0.0015  0.0035 </r>
        <r>  0.0005  0.0024  0.0024 </r>
        <r>  0.0001  0.0007  0.0024 </r>
        <r>  0.0000  0.0014  0.0012 </r>
        <r>  0.0000  0.0041  0.0029 </r>
        <r>  0.0000  0.0009  0.0007 </r>
        <r>  0.0000  0.0041  0.0029 </r>
        <r>  0.0000  0.0009  0.0007 </r>
        <r>  0.0001  0.0007  0.0024 </r>
        <r>  0.0000  0.0014  0.0012 </r>
        <r>  0.0005  0.0002  0.0015 </r>
        <r>  0.0000  0.0011  0.0004 </r>
        <r>  0.0013  0.0007  0.0028 </r>
        <r>  0.0005  0.0008  0.0014 </r>
        <r>  0.0013  0.0007  0.0028 </r>
        <r>  0.0005  0.0008  0.0014 </r>
        <r>  0.0005  0.0002  0.0015 </r>
        <r>  0.0000  0.0011  0.0004 </r>
       </set>
       <set comment="band 208">
        <r>  0.0000  0.0002  0.0071 </r>
        <r>  0.0033  0.0025  0.0188 </r>
        <r>  0.0006  0.0011  0.0037 </r>
        <r>  0.0001  0.0011  0.0087 </r>
        <r>  0.0006  0.0011  0.0037 </r>
        <r>  0.0001  0.0011  0.0087 </r>
        <r>  0.0000  0.0002  0.0071 </r>
        <r>  0.0033  0.0025  0.0188 </r>
        <r>  0.0001  0.0011  0.0011 </r>
        <r>  0.0007  0.0037  0.0017 </r>
        <r>  0.0001  0.0002  0.0004 </r>
        <r>  0.0006  0.0028  0.0009 </r>
        <r>  0.0001  0.0002  0.0004 </r>
        <r>  0.0006  0.0028  0.0009 </r>
        <r>  0.0001  0.0011  0.0011 </r>
        <r>  0.0007  0.0037  0.0017 </r>
        <r>  0.0000  0.0011  0.0004 </r>
        <r>  0.0005  0.0002  0.0016 </r>
        <r>  0.0005  0.0008  0.0014 </r>
        <r>  0.0013  0.0007  0.0028 </r>
        <r>  0.0005  0.0008  0.0014 </r>
        <r>  0.0013  0.0007  0.0028 </r>
        <r>  0.0000  0.0011  0.0004 </r>
        <r>  0.0005  0.0002  0.0016 </r>
        <r>  0.0000  0.0009  0.0007 </r>
        <r>  0.0000  0.0041  0.0029 </r>
        <r>  0.0000  0.0014  0.0012 </r>
        <r>  0.0001  0.0007  0.0024 </r>
        <r>  0.0000  0.0014  0.0012 </r>
        <r>  0.0001  0.0007  0.0024 </r>
        <r>  0.0000  0.0009  0.0007 </r>
        <r>  0.0000  0.0041  0.0029 </r>
        <r>  0.0005  0.0024  0.0023 </r>
        <r>  0.0010  0.0015  0.0035 </r>
        <r>  0.0000  0.0021  0.0005 </r>
        <r>  0.0008  0.0020  0.0019 </r>
        <r>  0.0000  0.0021  0.0005 </r>
        <r>  0.0008  0.0020  0.0019 </r>
        <r>  0.0005  0.0024  0.0023 </r>
        <r>  0.0010  0.0015  0.0035 </r>
       </set>
       <set comment="band 209">
        <r>  0.0000  0.0007  0.0141 </r>
        <r>  0.0001  0.0001  0.0067 </r>
        <r>  0.0000  0.0007  0.0141 </r>
        <r>  0.0001  0.0001  0.0067 </r>
        <r>  0.0000  0.0007  0.0141 </r>
        <r>  0.0001  0.0001  0.0067 </r>
        <r>  0.0000  0.0007  0.0141 </r>
        <r>  0.0001  0.0001  0.0067 </r>
        <r>  0.0000  0.0009  0.0016 </r>
        <r>  0.0000  0.0009  0.0016 </r>
        <r>  0.0000  0.0009  0.0016 </r>
        <r>  0.0000  0.0009  0.0016 </r>
        <r>  0.0000  0.0009  0.0016 </r>
        <r>  0.0000  0.0009  0.0016 </r>
        <r>  0.0000  0.0009  0.0016 </r>
        <r>  0.0000  0.0009  0.0016 </r>
        <r>  0.0000  0.0030  0.0019 </r>
        <r>  0.0000  0.0030  0.0019 </r>
        <r>  0.0002  0.0010  0.0015 </r>
        <r>  0.0002  0.0010  0.0015 </r>
        <r>  0.0002  0.0010  0.0015 </r>
        <r>  0.0002  0.0010  0.0015 </r>
        <r>  0.0000  0.0030  0.0019 </r>
        <r>  0.0000  0.0030  0.0019 </r>
        <r>  0.0000  0.0009  0.0052 </r>
        <r>  0.0000  0.0002  0.0016 </r>
        <r>  0.0000  0.0009  0.0052 </r>
        <r>  0.0000  0.0002  0.0016 </r>
        <r>  0.0000  0.0009  0.0052 </r>
        <r>  0.0000  0.0002  0.0016 </r>
        <r>  0.0000  0.0009  0.0052 </r>
        <r>  0.0000  0.0002  0.0016 </r>
        <r>  0.0002  0.0010  0.0015 </r>
        <r>  0.0002  0.0010  0.0015 </r>
        <r>  0.0000  0.0030  0.0019 </r>
        <r>  0.0000  0.0030  0.0019 </r>
        <r>  0.0000  0.0030  0.0019 </r>
        <r>  0.0000  0.0030  0.0019 </r>
        <r>  0.0002  0.0010  0.0015 </r>
        <r>  0.0002  0.0010  0.0015 </r>
       </set>
       <set comment="band 210">
        <r>  0.0001  0.0001  0.0067 </r>
        <r>  0.0000  0.0007  0.0141 </r>
        <r>  0.0001  0.0001  0.0067 </r>
        <r>  0.0000  0.0007  0.0141 </r>
        <r>  0.0001  0.0001  0.0067 </r>
        <r>  0.0000  0.0007  0.0141 </r>
        <r>  0.0001  0.0001  0.0067 </r>
        <r>  0.0000  0.0007  0.0141 </r>
        <r>  0.0000  0.0009  0.0016 </r>
        <r>  0.0000  0.0009  0.0016 </r>
        <r>  0.0000  0.0009  0.0016 </r>
        <r>  0.0000  0.0009  0.0016 </r>
        <r>  0.0000  0.0009  0.0016 </r>
        <r>  0.0000  0.0009  0.0016 </r>
        <r>  0.0000  0.0009  0.0016 </r>
        <r>  0.0000  0.0009  0.0016 </r>
        <r>  0.0002  0.0010  0.0015 </r>
        <r>  0.0002  0.0010  0.0015 </r>
        <r>  0.0000  0.0030  0.0019 </r>
        <r>  0.0000  0.0030  0.0019 </r>
        <r>  0.0000  0.0030  0.0019 </r>
        <r>  0.0000  0.0030  0.0019 </r>
        <r>  0.0002  0.0010  0.0015 </r>
        <r>  0.0002  0.0010  0.0015 </r>
        <r>  0.0000  0.0002  0.0016 </r>
        <r>  0.0000  0.0009  0.0052 </r>
        <r>  0.0000  0.0002  0.0016 </r>
        <r>  0.0000  0.0009  0.0052 </r>
        <r>  0.0000  0.0002  0.0016 </r>
        <r>  0.0000  0.0009  0.0052 </r>
        <r>  0.0000  0.0002  0.0016 </r>
        <r>  0.0000  0.0009  0.0052 </r>
        <r>  0.0000  0.0030  0.0019 </r>
        <r>  0.0000  0.0030  0.0019 </r>
        <r>  0.0002  0.0010  0.0015 </r>
        <r>  0.0002  0.0010  0.0015 </r>
        <r>  0.0002  0.0010  0.0015 </r>
        <r>  0.0002  0.0010  0.0015 </r>
        <r>  0.0000  0.0030  0.0019 </r>
        <r>  0.0000  0.0030  0.0019 </r>
       </set>
       <set comment="band 211">
        <r>  0.0000  0.0004  0.0044 </r>
        <r>  0.0000  0.0004  0.0147 </r>
        <r>  0.0000  0.0003  0.0077 </r>
        <r>  0.0013  0.0002  0.0050 </r>
        <r>  0.0000  0.0003  0.0077 </r>
        <r>  0.0013  0.0002  0.0050 </r>
        <r>  0.0000  0.0004  0.0044 </r>
        <r>  0.0000  0.0004  0.0147 </r>
        <r>  0.0012  0.0040  0.0004 </r>
        <r>  0.0012  0.0039  0.0004 </r>
        <r>  0.0002  0.0036  0.0018 </r>
        <r>  0.0002  0.0038  0.0018 </r>
        <r>  0.0002  0.0036  0.0018 </r>
        <r>  0.0002  0.0038  0.0018 </r>
        <r>  0.0012  0.0040  0.0004 </r>
        <r>  0.0012  0.0039  0.0004 </r>
        <r>  0.0002  0.0015  0.0012 </r>
        <r>  0.0002  0.0015  0.0012 </r>
        <r>  0.0001  0.0006  0.0019 </r>
        <r>  0.0001  0.0005  0.0019 </r>
        <r>  0.0001  0.0006  0.0019 </r>
        <r>  0.0001  0.0005  0.0019 </r>
        <r>  0.0002  0.0015  0.0012 </r>
        <r>  0.0002  0.0015  0.0012 </r>
        <r>  0.0000  0.0005  0.0028 </r>
        <r>  0.0017  0.0017  0.0012 </r>
        <r>  0.0000  0.0001  0.0003 </r>
        <r>  0.0002  0.0109  0.0026 </r>
        <r>  0.0000  0.0001  0.0003 </r>
        <r>  0.0002  0.0109  0.0026 </r>
        <r>  0.0000  0.0005  0.0028 </r>
        <r>  0.0017  0.0017  0.0012 </r>
        <r>  0.0009  0.0017  0.0032 </r>
        <r>  0.0009  0.0017  0.0032 </r>
        <r>  0.0001  0.0029  0.0010 </r>
        <r>  0.0001  0.0028  0.0010 </r>
        <r>  0.0001  0.0029  0.0010 </r>
        <r>  0.0001  0.0028  0.0010 </r>
        <r>  0.0009  0.0017  0.0032 </r>
        <r>  0.0009  0.0017  0.0032 </r>
       </set>
       <set comment="band 212">
        <r>  0.0013  0.0002  0.0051 </r>
        <r>  0.0000  0.0002  0.0077 </r>
        <r>  0.0000  0.0004  0.0146 </r>
        <r>  0.0000  0.0004  0.0043 </r>
        <r>  0.0000  0.0004  0.0146 </r>
        <r>  0.0000  0.0004  0.0043 </r>
        <r>  0.0013  0.0002  0.0051 </r>
        <r>  0.0000  0.0002  0.0077 </r>
        <r>  0.0001  0.0036  0.0018 </r>
        <r>  0.0001  0.0037  0.0017 </r>
        <r>  0.0012  0.0042  0.0004 </r>
        <r>  0.0013  0.0039  0.0004 </r>
        <r>  0.0012  0.0042  0.0004 </r>
        <r>  0.0013  0.0039  0.0004 </r>
        <r>  0.0001  0.0036  0.0018 </r>
        <r>  0.0001  0.0037  0.0017 </r>
        <r>  0.0009  0.0017  0.0032 </r>
        <r>  0.0009  0.0017  0.0031 </r>
        <r>  0.0001  0.0028  0.0010 </r>
        <r>  0.0001  0.0028  0.0009 </r>
        <r>  0.0001  0.0028  0.0010 </r>
        <r>  0.0001  0.0028  0.0009 </r>
        <r>  0.0009  0.0017  0.0032 </r>
        <r>  0.0009  0.0017  0.0031 </r>
        <r>  0.0001  0.0107  0.0026 </r>
        <r>  0.0000  0.0001  0.0002 </r>
        <r>  0.0018  0.0019  0.0012 </r>
        <r>  0.0000  0.0004  0.0028 </r>
        <r>  0.0018  0.0019  0.0012 </r>
        <r>  0.0000  0.0004  0.0028 </r>
        <r>  0.0001  0.0107  0.0026 </r>
        <r>  0.0000  0.0001  0.0002 </r>
        <r>  0.0002  0.0016  0.0012 </r>
        <r>  0.0002  0.0016  0.0012 </r>
        <r>  0.0000  0.0006  0.0020 </r>
        <r>  0.0000  0.0006  0.0019 </r>
        <r>  0.0000  0.0006  0.0020 </r>
        <r>  0.0000  0.0006  0.0019 </r>
        <r>  0.0002  0.0016  0.0012 </r>
        <r>  0.0002  0.0016  0.0012 </r>
       </set>
       <set comment="band 213">
        <r>  0.0000  0.0003  0.0077 </r>
        <r>  0.0013  0.0002  0.0050 </r>
        <r>  0.0000  0.0004  0.0044 </r>
        <r>  0.0000  0.0004  0.0147 </r>
        <r>  0.0000  0.0004  0.0044 </r>
        <r>  0.0000  0.0004  0.0147 </r>
        <r>  0.0000  0.0003  0.0077 </r>
        <r>  0.0013  0.0002  0.0050 </r>
        <r>  0.0002  0.0038  0.0017 </r>
        <r>  0.0002  0.0036  0.0018 </r>
        <r>  0.0013  0.0038  0.0004 </r>
        <r>  0.0012  0.0041  0.0004 </r>
        <r>  0.0013  0.0038  0.0004 </r>
        <r>  0.0012  0.0041  0.0004 </r>
        <r>  0.0002  0.0038  0.0017 </r>
        <r>  0.0002  0.0036  0.0018 </r>
        <r>  0.0001  0.0028  0.0009 </r>
        <r>  0.0001  0.0029  0.0010 </r>
        <r>  0.0009  0.0017  0.0031 </r>
        <r>  0.0009  0.0018  0.0032 </r>
        <r>  0.0009  0.0017  0.0031 </r>
        <r>  0.0009  0.0018  0.0032 </r>
        <r>  0.0001  0.0028  0.0009 </r>
        <r>  0.0001  0.0029  0.0010 </r>
        <r>  0.0000  0.0001  0.0003 </r>
        <r>  0.0002  0.0109  0.0026 </r>
        <r>  0.0000  0.0005  0.0028 </r>
        <r>  0.0017  0.0017  0.0012 </r>
        <r>  0.0000  0.0005  0.0028 </r>
        <r>  0.0017  0.0017  0.0012 </r>
        <r>  0.0000  0.0001  0.0003 </r>
        <r>  0.0002  0.0109  0.0026 </r>
        <r>  0.0001  0.0006  0.0019 </r>
        <r>  0.0001  0.0006  0.0019 </r>
        <r>  0.0002  0.0015  0.0012 </r>
        <r>  0.0002  0.0015  0.0013 </r>
        <r>  0.0002  0.0015  0.0012 </r>
        <r>  0.0002  0.0015  0.0013 </r>
        <r>  0.0001  0.0006  0.0019 </r>
        <r>  0.0001  0.0006  0.0019 </r>
       </set>
       <set comment="band 214">
        <r>  0.0000  0.0004  0.0146 </r>
        <r>  0.0000  0.0004  0.0043 </r>
        <r>  0.0013  0.0002  0.0051 </r>
        <r>  0.0000  0.0002  0.0077 </r>
        <r>  0.0013  0.0002  0.0051 </r>
        <r>  0.0000  0.0002  0.0077 </r>
        <r>  0.0000  0.0004  0.0146 </r>
        <r>  0.0000  0.0004  0.0043 </r>
        <r>  0.0013  0.0040  0.0004 </r>
        <r>  0.0012  0.0041  0.0004 </r>
        <r>  0.0001  0.0037  0.0018 </r>
        <r>  0.0001  0.0036  0.0018 </r>
        <r>  0.0001  0.0037  0.0018 </r>
        <r>  0.0001  0.0036  0.0018 </r>
        <r>  0.0013  0.0040  0.0004 </r>
        <r>  0.0012  0.0041  0.0004 </r>
        <r>  0.0000  0.0006  0.0019 </r>
        <r>  0.0000  0.0006  0.0019 </r>
        <r>  0.0002  0.0016  0.0012 </r>
        <r>  0.0002  0.0016  0.0012 </r>
        <r>  0.0002  0.0016  0.0012 </r>
        <r>  0.0002  0.0016  0.0012 </r>
        <r>  0.0000  0.0006  0.0019 </r>
        <r>  0.0000  0.0006  0.0019 </r>
        <r>  0.0018  0.0019  0.0012 </r>
        <r>  0.0000  0.0004  0.0028 </r>
        <r>  0.0001  0.0107  0.0026 </r>
        <r>  0.0000  0.0001  0.0002 </r>
        <r>  0.0001  0.0107  0.0026 </r>
        <r>  0.0000  0.0001  0.0002 </r>
        <r>  0.0018  0.0019  0.0012 </r>
        <r>  0.0000  0.0004  0.0028 </r>
        <r>  0.0001  0.0028  0.0010 </r>
        <r>  0.0001  0.0028  0.0010 </r>
        <r>  0.0009  0.0017  0.0031 </r>
        <r>  0.0009  0.0017  0.0032 </r>
        <r>  0.0009  0.0017  0.0031 </r>
        <r>  0.0009  0.0017  0.0032 </r>
        <r>  0.0001  0.0028  0.0010 </r>
        <r>  0.0001  0.0028  0.0010 </r>
       </set>
       <set comment="band 215">
        <r>  0.0000  0.0000  0.0022 </r>
        <r>  0.0000  0.0003  0.0146 </r>
        <r>  0.0000  0.0000  0.0022 </r>
        <r>  0.0000  0.0003  0.0147 </r>
        <r>  0.0000  0.0000  0.0022 </r>
        <r>  0.0000  0.0003  0.0146 </r>
        <r>  0.0000  0.0000  0.0022 </r>
        <r>  0.0000  0.0003  0.0147 </r>
        <r>  0.0001  0.0037  0.0017 </r>
        <r>  0.0001  0.0043  0.0015 </r>
        <r>  0.0001  0.0043  0.0015 </r>
        <r>  0.0001  0.0037  0.0017 </r>
        <r>  0.0001  0.0043  0.0015 </r>
        <r>  0.0001  0.0037  0.0017 </r>
        <r>  0.0001  0.0037  0.0017 </r>
        <r>  0.0001  0.0043  0.0015 </r>
        <r>  0.0003  0.0010  0.0007 </r>
        <r>  0.0003  0.0011  0.0006 </r>
        <r>  0.0000  0.0006  0.0042 </r>
        <r>  0.0001  0.0006  0.0040 </r>
        <r>  0.0000  0.0006  0.0041 </r>
        <r>  0.0001  0.0006  0.0040 </r>
        <r>  0.0003  0.0010  0.0007 </r>
        <r>  0.0003  0.0011  0.0006 </r>
        <r>  0.0000  0.0023  0.0009 </r>
        <r>  0.0003  0.0039  0.0038 </r>
        <r>  0.0000  0.0023  0.0009 </r>
        <r>  0.0003  0.0039  0.0038 </r>
        <r>  0.0000  0.0023  0.0009 </r>
        <r>  0.0003  0.0039  0.0038 </r>
        <r>  0.0000  0.0023  0.0009 </r>
        <r>  0.0003  0.0039  0.0038 </r>
        <r>  0.0001  0.0006  0.0040 </r>
        <r>  0.0000  0.0006  0.0042 </r>
        <r>  0.0003  0.0011  0.0006 </r>
        <r>  0.0003  0.0010  0.0007 </r>
        <r>  0.0003  0.0011  0.0006 </r>
        <r>  0.0003  0.0010  0.0007 </r>
        <r>  0.0001  0.0006  0.0040 </r>
        <r>  0.0000  0.0006  0.0041 </r>
       </set>
       <set comment="band 216">
        <r>  0.0000  0.0003  0.0146 </r>
        <r>  0.0000  0.0000  0.0022 </r>
        <r>  0.0000  0.0003  0.0147 </r>
        <r>  0.0000  0.0000  0.0022 </r>
        <r>  0.0000  0.0003  0.0146 </r>
        <r>  0.0000  0.0000  0.0022 </r>
        <r>  0.0000  0.0003  0.0147 </r>
        <r>  0.0000  0.0000  0.0022 </r>
        <r>  0.0001  0.0043  0.0015 </r>
        <r>  0.0001  0.0037  0.0017 </r>
        <r>  0.0001  0.0037  0.0017 </r>
        <r>  0.0001  0.0043  0.0015 </r>
        <r>  0.0001  0.0037  0.0017 </r>
        <r>  0.0001  0.0043  0.0015 </r>
        <r>  0.0001  0.0043  0.0015 </r>
        <r>  0.0001  0.0037  0.0017 </r>
        <r>  0.0001  0.0006  0.0040 </r>
        <r>  0.0000  0.0006  0.0041 </r>
        <r>  0.0003  0.0011  0.0006 </r>
        <r>  0.0003  0.0010  0.0007 </r>
        <r>  0.0003  0.0011  0.0006 </r>
        <r>  0.0003  0.0010  0.0007 </r>
        <r>  0.0001  0.0006  0.0040 </r>
        <r>  0.0000  0.0006  0.0042 </r>
        <r>  0.0003  0.0039  0.0038 </r>
        <r>  0.0000  0.0023  0.0009 </r>
        <r>  0.0003  0.0039  0.0038 </r>
        <r>  0.0000  0.0023  0.0009 </r>
        <r>  0.0003  0.0039  0.0038 </r>
        <r>  0.0000  0.0023  0.0009 </r>
        <r>  0.0003  0.0039  0.0038 </r>
        <r>  0.0000  0.0023  0.0009 </r>
        <r>  0.0003  0.0010  0.0007 </r>
        <r>  0.0003  0.0011  0.0006 </r>
        <r>  0.0000  0.0006  0.0041 </r>
        <r>  0.0001  0.0006  0.0040 </r>
        <r>  0.0000  0.0006  0.0042 </r>
        <r>  0.0001  0.0006  0.0040 </r>
        <r>  0.0003  0.0010  0.0007 </r>
        <r>  0.0003  0.0011  0.0006 </r>
       </set>
      </set>
     </set>
    </set>
   </array>
  </projected>
 </calculation>
 <structure name="finalpos" >
  <crystal>
   <varray name="basis" >
    <v>      11.73535200       0.00000000       0.00000000 </v>
    <v>       0.00000000      11.73535200       0.00000000 </v>
    <v>       0.00000000       0.00000000      11.73535200 </v>
   </varray>
   <i name="volume">   1616.17491673 </i>
   <varray name="rec_basis" >
    <v>       0.08521261       0.00000000       0.00000000 </v>
    <v>       0.00000000       0.08521261       0.00000000 </v>
    <v>       0.00000000       0.00000000       0.08521261 </v>
   </varray>
  </crystal>
  <varray name="positions" >
   <v>       0.25000000       0.25000000       0.25000000 </v>
   <v>       0.25000000       0.25000000       0.75000000 </v>
   <v>       0.25000000       0.75000000       0.25000000 </v>
   <v>       0.25000000       0.75000000       0.75000000 </v>
   <v>       0.75000000       0.25000000       0.25000000 </v>
   <v>       0.75000000       0.25000000       0.75000000 </v>
   <v>       0.75000000       0.75000000       0.25000000 </v>
   <v>       0.75000000       0.75000000       0.75000000 </v>
   <v>       0.00000000       0.00000000       0.00000000 </v>
   <v>       0.00000000       0.00000000       0.50000000 </v>
   <v>       0.00000000       0.50000000       0.00000000 </v>
   <v>       0.00000000       0.50000000       0.50000000 </v>
   <v>       0.50000000       0.00000000       0.00000000 </v>
   <v>       0.50000000       0.00000000       0.50000000 </v>
   <v>       0.50000000       0.50000000       0.00000000 </v>
   <v>       0.50000000       0.50000000       0.50000000 </v>
   <v>       0.91000000       0.25000000       0.10000000 </v>
   <v>       0.91000000       0.25000000       0.40000000 </v>
   <v>       0.09000000       0.75000000       0.90000000 </v>
   <v>       0.09000000       0.75000000       0.60000000 </v>
   <v>       0.59000000       0.25000000       0.90000000 </v>
   <v>       0.59000000       0.25000000       0.60000000 </v>
   <v>       0.41000000       0.75000000       0.10000000 </v>
   <v>       0.41000000       0.75000000       0.40000000 </v>
   <v>       0.10000000       0.90000000       0.25000000 </v>
   <v>       0.90000000       0.10000000       0.75000000 </v>
   <v>       0.90000000       0.60000000       0.25000000 </v>
   <v>       0.10000000       0.40000000       0.75000000 </v>
   <v>       0.40000000       0.10000000       0.25000000 </v>
   <v>       0.60000000       0.90000000       0.75000000 </v>
   <v>       0.60000000       0.40000000       0.25000000 </v>
   <v>       0.40000000       0.60000000       0.75000000 </v>
   <v>       0.25000000       0.09000000       0.90000000 </v>
   <v>       0.25000000       0.09000000       0.60000000 </v>
   <v>       0.25000000       0.41000000       0.10000000 </v>
   <v>       0.25000000       0.41000000       0.40000000 </v>
   <v>       0.75000000       0.91000000       0.10000000 </v>
   <v>       0.75000000       0.91000000       0.40000000 </v>
   <v>       0.75000000       0.59000000       0.90000000 </v>
   <v>       0.75000000       0.59000000       0.60000000 </v>
  </varray>
 </structure>
</modeling>
