 vasp.5.4.4.18Apr17-6-g9f103f2a35 (build Jun 22 2020 09:27:21) complex           
 executed on tx2_gcc-7.3_libsci-1 date 2021.09.22  10:57:44
 running on   64 total cores
 distrk:  each k-point on   64 cores,    1 groups
 distr:  one band on NCORES_PER_BAND=   8 cores,    8 groups


--------------------------------------------------------------------------------------------------------


 INCAR:
 POTCAR:    PAW_PBE Cs_sv 08Apr2002               
 POTCAR:    PAW_PBE Pb_d 06Sep2000                
 POTCAR:    PAW_PBE Br 06Sep2000                  
 POTCAR:    PAW_PBE Cs_sv 08Apr2002               
   SHA256 =  c1463496f0f6037ed62c6012a8013a89ee9ad6ffb38599dcd6c079e7ed31779b Cs
   COPYR  = (c) Copyright 08Apr2002 Georg Kresse                                
   COPYR  = This file is part of the software VASP. Any use, copying, and all ot
   COPYR  = If you do not have a valid VASP license, you may not use, copy or di
   VRHFIN =Cs: 5s5p6s                                                           
   LEXCH  = PE                                                                  
   EATOM  =   555.6835 eV,   40.8416 Ry                                         
                                                                                
   TITEL  = PAW_PBE Cs_sv 08Apr2002                                             
   LULTRA =        F    use ultrasoft PP ?                                      
   IUNSCR =        1    unscreen: 0-lin 1-nonlin 2-no                           
   RPACOR =    2.200    partial core radius                                     
   POMASS =  132.900; ZVAL   =    9.000    mass and valenz                      
   RCORE  =    2.500    outmost cutoff radius                                   
   RWIGS  =    2.500; RWIGS  =    1.323    wigner-seitz radius (au A)           
   ENMAX  =  220.318; ENMIN  =  165.238 eV                                      
   RCLOC  =    2.207    cutoff for local pot                                    
   LCOR   =        T    correct aug charges                                     
   LPAW   =        T    paw PP                                                  
   EAUG   =  407.933                                                            
   DEXC   =    0.000                                                            
   RMAX   =    2.554    core radius for proj-oper                               
   RAUG   =    1.300    factor for augmentation sphere                          
   RDEP   =    2.590    radius for radial grids                                 
   RDEPT  =    2.117    core radius for aug-charge                              
                                                                                
   Atomic configuration                                                         
   13 entries                                                                   
     n  l   j            E        occ.                                          
     1  0  0.50    -35790.1377   2.0000                                         
     2  0  0.50     -5613.6201   2.0000                                         
     2  1  1.50     -5035.0101   6.0000                                         
     3  0  0.50     -1167.0767   2.0000                                         
     3  1  1.50      -980.9754   6.0000                                         
     3  2  2.50      -708.0703  10.0000                                         
     4  0  0.50      -220.2386   2.0000                                         
     4  1  1.50      -160.7596   6.0000                                         
     4  2  2.50       -74.2354  10.0000                                         
     5  0  0.50       -26.7287   2.0000                                         
     6  0  0.50        -2.0862   1.0000                                         
     5  1  1.50       -13.5159   6.0000                                         
     5  2  2.50        -0.4136   0.0000                                         
   Description                                                                  
     l       E           TYP  RCUT    TYP  RCUT                                 
     0    -26.7287425     23  1.900                                             
     0     -2.0862306     23  1.900                                             
     1    -13.5158719     23  2.500                                             
     1     -2.7211652     23  2.500                                             
     2     -0.4136171     23  2.500                                             
  local pseudopotential read in
  partial core-charges read in
  partial kinetic energy density read in
  atomic valenz-charges read in
  non local Contribution for L=           0  read in
    real space projection operators read in
  non local Contribution for L=           0  read in
    real space projection operators read in
  non local Contribution for L=           1  read in
    real space projection operators read in
  non local Contribution for L=           1  read in
    real space projection operators read in
  non local Contribution for L=           2  read in
    real space projection operators read in
    PAW grid and wavefunctions read in

   number of l-projection  operators is LMAX  =           5
   number of lm-projection operators is LMMAX =          13

 POTCAR:    PAW_PBE Pb_d 06Sep2000                
   SHA256 =  fb885b08f0fba73a15f6a6b0e39bd200c13ec96ef97cf3ecd8e63bade5137abd Pb
   COPYR  = (c) Copyright 06Sep2000 Georg Kresse                                
   COPYR  = This file is part of the software VASP. Any use, copying, and all ot
   COPYR  = If you do not have a valid VASP license, you may not use, copy or di
   VRHFIN =Pb:                                                                  
   LEXCH  = PE                                                                  
   EATOM  =  1661.6185 eV,  122.1255 Ry                                         
                                                                                
   TITEL  = PAW_PBE Pb_d 06Sep2000                                              
   LULTRA =        F    use ultrasoft PP ?                                      
   IUNSCR =        1    unscreen: 0-lin 1-nonlin 2-no                           
   RPACOR =    2.200    partial core radius                                     
   POMASS =  207.200; ZVAL   =   14.000    mass and valenz                      
   RCORE  =    2.500    outmost cutoff radius                                   
   RWIGS  =    3.260; RWIGS  =    1.725    wigner-seitz radius (au A)           
   ENMAX  =  237.835; ENMIN  =  178.376 eV                                      
   ICORE  =        3    local potential                                         
   LCOR   =        T    correct aug charges                                     
   LPAW   =        T    paw PP                                                  
   EAUG   =  391.914                                                            
   DEXC   =    0.000                                                            
   RMAX   =    2.565    core radius for proj-oper                               
   RAUG   =    1.300    factor for augmentation sphere                          
   RDEP   =    2.643    radius for radial grids                                 
   RDEPT  =    2.092    core radius for aug-charge                              
                                                                                
   Atomic configuration                                                         
   16 entries                                                                   
     n  l   j            E        occ.                                          
     1  0  0.50    -88091.8466   2.0000                                         
     2  0  0.50    -15753.4197   2.0000                                         
     2  1  1.50    -13508.1797   6.0000                                         
     3  0  0.50     -3781.7194   2.0000                                         
     3  1  1.50     -3138.2529   6.0000                                         
     3  2  2.50     -2483.2977  10.0000                                         
     4  0  0.50      -856.2895   2.0000                                         
     4  1  1.50      -645.4942   6.0000                                         
     4  2  2.50      -401.8768  10.0000                                         
     4  3  3.50      -132.9059  14.0000                                         
     5  0  0.50      -144.0950   2.0000                                         
     5  1  1.50       -85.7879   6.0000                                         
     5  2  2.50       -21.1769  10.0000                                         
     6  0  0.50       -12.0372   2.0000                                         
     6  1  1.50        -3.4971   2.0000                                         
     5  3  2.50        -2.7212   0.0000                                         
   Description                                                                  
     l       E           TYP  RCUT    TYP  RCUT                                 
     2    -21.1768523     23  2.500                                             
     2      1.3605826     23  2.500                                             
     0    -12.0371562     23  2.500                                             
     0     13.6058260     23  2.500                                             
     1     -3.4971339     23  2.500                                             
     1     13.6058260     23  2.500                                             
     3     -1.3605826      7  2.500                                             
  local pseudopotential read in
  partial core-charges read in
  partial kinetic energy density read in
  atomic valenz-charges read in
  non local Contribution for L=           2  read in
    real space projection operators read in
  non local Contribution for L=           2  read in
    real space projection operators read in
  non local Contribution for L=           0  read in
    real space projection operators read in
  non local Contribution for L=           0  read in
    real space projection operators read in
  non local Contribution for L=           1  read in
    real space projection operators read in
  non local Contribution for L=           1  read in
    real space projection operators read in
    PAW grid and wavefunctions read in

   number of l-projection  operators is LMAX  =           6
   number of lm-projection operators is LMMAX =          18

 POTCAR:    PAW_PBE Br 06Sep2000                  
   SHA256 =  96a73d2954943bbee26f4990d676cc6c3bf44b8dd2c75cd4b3b825d8403f0103 Br
   COPYR  = (c) Copyright 06Sep2000 Georg Kresse                                
   COPYR  = This file is part of the software VASP. Any use, copying, and all ot
   COPYR  = If you do not have a valid VASP license, you may not use, copy or di
   VRHFIN =Br: s2p5                                                             
   LEXCH  = PE                                                                  
   EATOM  =   368.4488 eV,   27.0802 Ry                                         
                                                                                
   TITEL  = PAW_PBE Br 06Sep2000                                                
   LULTRA =        F    use ultrasoft PP ?                                      
   IUNSCR =        1    unscreen: 0-lin 1-nonlin 2-no                           
   RPACOR =    1.900    partial core radius                                     
   POMASS =   79.904; ZVAL   =    7.000    mass and valenz                      
   RCORE  =    2.100    outmost cutoff radius                                   
   RWIGS  =    2.200; RWIGS  =    1.164    wigner-seitz radius (au A)           
   ENMAX  =  216.285; ENMIN  =  162.214 eV                                      
   ICORE  =        3    local potential                                         
   LCOR   =        T    correct aug charges                                     
   LPAW   =        T    paw PP                                                  
   EAUG   =  503.852                                                            
   DEXC   =    0.000                                                            
   RMAX   =    2.139    core radius for proj-oper                               
   RAUG   =    1.300    factor for augmentation sphere                          
   RDEP   =    2.186    radius for radial grids                                 
   RDEPT  =    1.890    core radius for aug-charge                              
                                                                                
   Atomic configuration                                                         
   10 entries                                                                   
     n  l   j            E        occ.                                          
     1  0  0.50    -13316.2796   2.0000                                         
     2  0  0.50     -1732.8239   2.0000                                         
     2  1  1.50     -1528.2193   6.0000                                         
     3  0  0.50      -238.0460   2.0000                                         
     3  1  1.50      -173.4609   6.0000                                         
     3  2  2.50       -66.7132  10.0000                                         
     4  0  0.50       -20.1334   2.0000                                         
     4  1  0.50        -7.8591   5.0000                                         
     4  2  2.50        -8.1635   0.0000                                         
     4  3  2.50        -8.1635   0.0000                                         
   Description                                                                  
     l       E           TYP  RCUT    TYP  RCUT                                 
     0    -20.1333652     23  2.100                                             
     0    -21.4939478     23  2.100                                             
     1     -7.8591052     23  2.100                                             
     1     -3.1608434     23  2.100                                             
     2     -8.1634956     23  2.100                                             
     3     -1.3605826      7  2.100                                             
  local pseudopotential read in
  partial core-charges read in
  partial kinetic energy density read in
  atomic valenz-charges read in
  non local Contribution for L=           0  read in
    real space projection operators read in
  non local Contribution for L=           0  read in
    real space projection operators read in
  non local Contribution for L=           1  read in
    real space projection operators read in
  non local Contribution for L=           1  read in
    real space projection operators read in
  non local Contribution for L=           2  read in
    real space projection operators read in
    PAW grid and wavefunctions read in

   number of l-projection  operators is LMAX  =           5
   number of lm-projection operators is LMMAX =          13

 Optimization of the real space projectors (new method)

 maximal supplied QI-value         = 15.12
 optimisation between [QCUT,QGAM] = [  8.77, 17.69] = [ 21.53, 87.61] Ry 
 Optimized for a Real-space Cutoff    1.85 Angstroem

   l    n(q)    QCUT    max X(q) W(low)/X(q) W(high)/X(q)  e(spline) 
   0     10     8.768    25.322    0.81E-04    0.51E-04    0.48E-06
   0     10     8.768    99.187    0.78E-04    0.50E-04    0.47E-06
   1      9     8.768    11.761    0.21E-03    0.20E-03    0.37E-06
   1      9     8.768     8.275    0.24E-03    0.22E-03    0.41E-06
   2      9     8.768     3.829    0.23E-04    0.15E-03    0.18E-06
 Optimization of the real space projectors (new method)

 maximal supplied QI-value         = 15.12
 optimisation between [QCUT,QGAM] = [  8.77, 17.69] = [ 21.53, 87.61] Ry 
 Optimized for a Real-space Cutoff    1.59 Angstroem

   l    n(q)    QCUT    max X(q) W(low)/X(q) W(high)/X(q)  e(spline) 
   2      7     8.768     3.846    0.48E-04    0.11E-03    0.11E-06
   2      7     8.768     8.593    0.20E-03    0.22E-04    0.24E-06
   0      8     8.768    20.082    0.68E-04    0.88E-04    0.41E-07
   0      8     8.768     8.597    0.89E-04    0.13E-03    0.59E-07
   1      8     8.768    33.223    0.15E-03    0.53E-04    0.87E-07
   1      8     8.768    15.899    0.14E-03    0.44E-04    0.78E-07
 Optimization of the real space projectors (new method)

 maximal supplied QI-value         = 17.95
 optimisation between [QCUT,QGAM] = [  8.80, 17.59] = [ 21.67, 86.68] Ry 
 Optimized for a Real-space Cutoff    1.59 Angstroem

   l    n(q)    QCUT    max X(q) W(low)/X(q) W(high)/X(q)  e(spline) 
   0      8     8.797   175.082    0.82E-04    0.14E-03    0.89E-07
   0      8     8.797   174.004    0.79E-04    0.14E-03    0.86E-07
   1      8     8.797    54.315    0.16E-03    0.14E-04    0.30E-06
   1      8     8.797    42.441    0.16E-03    0.14E-04    0.30E-06
   2      7     8.797     3.596    0.92E-04    0.15E-03    0.85E-07
  PAW_PBE Cs_sv 08Apr2002               :
 energy of atom  1       EATOM= -555.6835
 kinetic energy error for atom=    0.0069 (will be added to EATOM!!)
  PAW_PBE Pb_d 06Sep2000                :
 energy of atom  2       EATOM=-1661.6185
 kinetic energy error for atom=    0.0498 (will be added to EATOM!!)
  PAW_PBE Br 06Sep2000                  :
 energy of atom  3       EATOM= -368.4488
 kinetic energy error for atom=    0.0072 (will be added to EATOM!!)


 POSCAR: Cs Pb Br                                
  positions in cartesian coordinates
  No initial velocities read in

 METAGGA = SCAN     LMAXTAU =  6    LMIXTAU =  F

 exchange correlation table for  LEXCH =        8
   RHO(1)=    0.500       N(1)  =     2000
   RHO(2)=  100.500       N(2)  =     4000

 VTST: version 3.2, (02/03/18)

 CHAIN: initializing optimizer
 
 OPT: Using VASP Conjugate-Gradient optimizer
 CHAIN: Read ICHAIN            0

 POSCAR: Cs Pb Br                                
  positions in cartesian coordinates
  No initial velocities read in



--------------------------------------------------------------------------------------------------------


 ion  position               nearest neighbor table
   1  0.272  0.250  0.208-
   2  0.811  0.244  0.776-
   3  0.875  0.732  0.298-
   4  0.280  0.791  0.793-
   5  0.274  0.281  0.734-
   6  0.787  0.195  0.323-
   7  0.719  0.785  0.826-
   8  0.324  0.776  0.332-
   9  0.006  0.972  0.027-  21 2.85  30 2.93  31 3.04  36 3.05  19 3.13  33 3.24
  10  0.530  0.018  0.505-  35 2.80  32 2.88  22 3.02  34 3.13  29 3.21  20 3.22
  11  0.496  0.070  0.016-  23 2.82  33 2.91  35 2.95  29 3.11  31 3.15  17 3.28
  12  0.046  0.959  0.532-  18 2.83  36 2.96  32 2.99  30 3.11  24 3.13  34 3.15
  13  0.518  0.526  0.041-  23 2.85  37 2.92  39 3.01  27 3.09  25 3.14  17 3.20
  14  0.064  0.493  0.472-  18 2.88  40 2.94  26 3.01  38 3.19  24 3.21  28 3.35
  15  0.011  0.484  0.983-  28 2.73  25 2.94  40 2.95  19 2.98  37 3.03  21 3.15
  16  0.553  0.545  0.538-  39 2.95  27 2.96  38 3.02  22 3.05  26 3.08  20 3.08
  17  0.499  0.796  0.067-  13 3.20  11 3.28
  18  0.080  0.722  0.558-  12 2.83  14 2.88
  19  0.980  0.237  0.031-  15 2.98   9 3.13
  20  0.580  0.287  0.508-  16 3.08  10 3.22
  21  0.070  0.739  0.044-   9 2.85  15 3.15
  22  0.504  0.788  0.616-  10 3.02  16 3.05
  23  0.566  0.291  0.078-  11 2.82  13 2.85
  24  0.047  0.224  0.513-  12 3.13  14 3.21
  25  0.261  0.454  0.990-  15 2.94  13 3.14
  26  0.811  0.509  0.507-  14 3.01  16 3.08
  27  0.580  0.592  0.292-  16 2.96  13 3.09
  28  0.009  0.467  0.750-  15 2.73  14 3.35
  29  0.581  0.091  0.768-  11 3.11  10 3.21
  30  0.080  0.983  0.270-   9 2.93  12 3.11
  31  0.754  0.006  0.077-   9 3.04  11 3.15
  32  0.294  0.020  0.568-  10 2.88  12 2.99
  33  0.252  0.073  0.957-  11 2.91   9 3.24
  34  0.779  0.921  0.505-  10 3.13  12 3.15
  35  0.496  0.051  0.269-  10 2.80  11 2.95
  36  0.961  0.979  0.767-  12 2.96   9 3.05
  37  0.758  0.547  0.985-  13 2.92  15 3.03
  38  0.331  0.451  0.434-  16 3.02  14 3.19
  39  0.506  0.519  0.783-  16 2.95  13 3.01
  40  0.986  0.458  0.232-  14 2.94  15 2.95

  LATTYP: Found a base centered orthorhombic cell.
 ALAT       =    16.1559620000
 B/A-ratio  =     1.0423418921
 C/A-ratio  =     0.7281403608
  
  Lattice vectors:
  
 A1 = (  -8.4200180000,   0.0000000000,  -8.0779810000)
 A2 = (   8.4200180000,   0.0000000000,  -8.0779810000)
 A3 = (   0.0000000000, -11.7638080000,   0.0000000000)


Analysis of symmetry for initial positions (statically):
=====================================================================
 Subroutine PRICEL returns:
 Original cell was already a primitive cell.
 

 Routine SETGRP: Setting up the symmetry group for a 
 base centered orthorhombic supercell.


 Subroutine GETGRP returns: Found  1 space group operations
 (whereof  1 operations were pure point group operations)
 out of a pool of  8 trial point group operations.


The static configuration has the point symmetry C_1 .


Analysis of symmetry for dynamics (positions and initial velocities):
=====================================================================
 Subroutine PRICEL returns:
 Original cell was already a primitive cell.
 

 Routine SETGRP: Setting up the symmetry group for a 
 base centered orthorhombic supercell.


 Subroutine GETGRP returns: Found  1 space group operations
 (whereof  1 operations were pure point group operations)
 out of a pool of  8 trial point group operations.


The dynamic configuration has the point symmetry C_1 .


Analysis of constrained symmetry for selective dynamics:
=====================================================================
 Subroutine PRICEL returns:
 Original cell was already a primitive cell.
 

 Routine SETGRP: Setting up the symmetry group for a 
 base centered orthorhombic supercell.


 Subroutine GETGRP returns: Found  1 space group operations
 (whereof  1 operations were pure point group operations)
 out of a pool of  8 trial point group operations.


The constrained configuration has the point symmetry C_1 .


 Subroutine INISYM returns: Found  1 space group operations
 (whereof  1 operations are pure point group operations),
 and found     1 'primitive' translations



 KPOINTS: 1x1x1                                   

Automatic generation of k-mesh.
Space group operators:
 irot       det(A)        alpha          n_x          n_y          n_z        tau_x        tau_y        tau_z
    1     1.000000     0.000000     1.000000     0.000000     0.000000     0.000000     0.000000     0.000000
 
 Subroutine IBZKPT returns following result:
 ===========================================
 
 Found      8 irreducible k-points:
 
 Following reciprocal coordinates:
            Coordinates               Weight
  0.000000  0.000000  0.000000      1.000000
  0.500000  0.000000  0.000000      1.000000
  0.000000  0.500000  0.000000      1.000000
  0.500000  0.500000  0.000000      1.000000
  0.000000  0.000000  0.500000      1.000000
  0.500000  0.000000  0.500000      1.000000
  0.000000  0.500000  0.500000      1.000000
  0.500000  0.500000  0.500000      1.000000
 
 Following cartesian coordinates:
            Coordinates               Weight
  0.000000  0.000000  0.000000      1.000000
  0.029691  0.000000  0.030948      1.000000
  0.000000  0.042503  0.000000      1.000000
  0.029691  0.042503  0.030948      1.000000
 -0.029691  0.000000  0.030948      1.000000
  0.000000  0.000000  0.061897      1.000000
 -0.029691  0.042503  0.030948      1.000000
  0.000000  0.042503  0.061897      1.000000
 


--------------------------------------------------------------------------------------------------------




 Dimension of arrays:
   k-points           NKPTS =      8   k-points in BZ     NKDIM =      8   number of bands    NBANDS=    216
   number of dos      NEDOS =    301   number of ions     NIONS =     40
   non local maximal  LDIM  =      6   non local SUM 2l+1 LMDIM =     18
   total plane-waves  NPLWV = 343000
   max r-space proj   IRMAX =   5716   max aug-charges    IRDMAX=  91227
   dimension x,y,z NGX =    70 NGY =   70 NGZ =   70
   dimension x,y,z NGXF=   140 NGYF=  140 NGZF=  140
   support grid    NGXF=   280 NGYF=  280 NGZF=  280
   ions per type =               8   8  24
   NGX,Y,Z   is equivalent  to a cutoff of   9.97,  9.89,  9.97 a.u.
   NGXF,Y,Z  is equivalent  to a cutoff of  19.95, 19.78, 19.95 a.u.

 SYSTEM =  CsPbBr3 cubic bulk                      
 POSCAR =  Cs Pb Br                                

 Startparameter for this run:
   NWRITE =      2    write-flag & timer
   PREC   = accura    normal or accurate (medium, high low for compatibility)
   ISTART =      0    job   : 0-new  1-cont  2-samecut
   ICHARG =      2    charge: 1-file 2-atom 10-const
   ISPIN  =      1    spin polarized calculation?
   LNONCOLLINEAR =      F non collinear calculations
   LSORBIT =      F    spin-orbit coupling
   INIWAV =      1    electr: 0-lowe 1-rand  2-diag
   LASPH  =      T    aspherical Exc in radial PAW
   METAGGA=      F    non-selfconsistent MetaGGA calc.

 Electronic Relaxation 1
   ENCUT  =  300.0 eV  22.05 Ry    4.70 a.u.  16.48 16.61 16.48*2*pi/ulx,y,z
   ENINI  =  300.0     initial cutoff
   ENAUG  =  503.9 eV  augmentation charge cutoff
   NELM   =    200;   NELMIN=  2; NELMDL= -5     # of ELM steps 
   EDIFF  = 0.1E-05   stopping-criterion for ELM
   LREAL  =      T    real-space projection
   NLSPLINE    = F    spline interpolate recip. space projectors
   LCOMPAT=      F    compatible to vasp.4.4
   GGA_COMPAT  = T    GGA compatible to vasp.4.4-vasp.4.6
   LMAXPAW     = -100 max onsite density
   LMAXMIX     =    2 max onsite mixed and CHGCAR
   VOSKOWN=      0    Vosko Wilk Nusair interpolation
   ROPT   =   -0.00025  -0.00025  -0.00025
 Ionic relaxation
   EDIFFG = -.1E-01   stopping-criterion for IOM
   NSW    =      0    number of steps for IOM
   NBLOCK =      1;   KBLOCK =      1    inner block; outer block 
   IBRION =     -1    ionic relax: 0-MD 1-quasi-New 2-CG
   NFREE  =      1    steps in history (QN), initial steepest desc. (CG)
   ISIF   =      3    stress and relaxation
   IWAVPR =     10    prediction:  0-non 1-charg 2-wave 3-comb
   ISYM   =      2    0-nonsym 1-usesym 2-fastsym
   LCORR  =      T    Harris-Foulkes like correction to forces

   POTIM  = 0.5000    time-step for ionic-motion
   TEIN   =    0.0    initial temperature
   TEBEG  =    0.0;   TEEND  =   0.0 temperature during run
   SMASS  =  -3.00    Nose mass-parameter (am)
   estimated Nose-frequenzy (Omega)   =  0.10E-29 period in steps =****** mass=  -0.311E-26a.u.
   SCALEE = 1.0000    scale energy and forces
   NPACO  =    256;   APACO  = 16.0  distance and # of slots for P.C.
   PSTRESS=    0.0 pullay stress

  Mass of Ions in am
   POMASS = 132.90207.20 79.90
  Ionic Valenz
   ZVAL   =   9.00 14.00  7.00
  Atomic Wigner-Seitz radii
   RWIGS  =  -1.00 -1.00 -1.00
  virtual crystal weights 
   VCA    =   1.00  1.00  1.00
   NELECT =     352.0000    total number of electrons
   NUPDOWN=      -1.0000    fix difference up-down

 DOS related values:
   EMIN   =  10.00;   EMAX   =-10.00  energy-range for DOS
   EFERMI =   0.00
   ISMEAR =     0;   SIGMA  =   0.01  broadening in eV -4-tet -1-fermi 0-gaus

 Electronic relaxation 2 (details)
   IALGO  =     38    algorithm
   LDIAG  =      T    sub-space diagonalisation (order eigenvalues)
   LSUBROT=      F    optimize rotation matrix (better conditioning)
   TURBO    =      0    0=normal 1=particle mesh
   IRESTART =      0    0=no restart 2=restart with 2 vectors
   NREBOOT  =      0    no. of reboots
   NMIN     =      0    reboot dimension
   EREF     =   0.00    reference energy to select bands
   IMIX   =      4    mixing-type and parameters
     AMIX     =   0.40;   BMIX     =  1.00
     AMIX_MAG =   1.60;   BMIX_MAG =  1.00
     AMIN     =   0.10
     WC   =   100.;   INIMIX=   1;  MIXPRE=   1;  MAXMIX= -45

 Intra band minimization:
   WEIMIN = 0.0000     energy-eigenvalue tresh-hold
   EBREAK =  0.12E-08  absolut break condition
   DEPER  =   0.30     relativ break condition  

   TIME   =   0.40     timestep for ELM

  volume/ion in A,a.u.               =      40.01       269.98
  Fermi-wavevector in a.u.,A,eV,Ry     =   0.988229  1.867483 13.287415  0.976597
  Thomas-Fermi vector in A             =   2.119741

 Write flags
   LWAVE        =      F    write WAVECAR
   LDOWNSAMPLE  =      F    k-point downsampling of WAVECAR
   LCHARG       =      F    write CHGCAR
   LVTOT        =      F    write LOCPOT, total local potential
   LVHAR        =      T    write LOCPOT, Hartree potential only
   LELF         =      F    write electronic localiz. function (ELF)
   LORBIT       =     10    0 simple, 1 ext, 2 COOP (PROOUT), +10 PAW based schemes


 Dipole corrections
   LMONO  =      F    monopole corrections only (constant potential shift)
   LDIPOL =      F    correct potential (dipole corrections)
   IDIPOL =      0    1-x, 2-y, 3-z, 4-all directions 
   EPSILON=  1.0000000 bulk dielectric constant

 Exchange correlation treatment:
   GGA     =    --    GGA type
   LEXCH   =     8    internal setting for exchange type
   VOSKOWN=      0    Vosko Wilk Nusair interpolation
   LHFCALC =     F    Hartree Fock is set to
   LHFONE  =     F    Hartree Fock one center treatment
   AEXX    =    0.0000 exact exchange contribution

 Linear response parameters
   LEPSILON=     F    determine dielectric tensor
   LRPA    =     F    only Hartree local field effects (RPA)
   LNABLA  =     F    use nabla operator in PAW spheres
   LVEL    =     F    velocity operator in full k-point grid
   LINTERFAST=   F  fast interpolation
   KINTER  =     0    interpolate to denser k-point grid
   CSHIFT  =0.1000    complex shift for real part using Kramers Kronig
   OMEGAMAX=  -1.0    maximum frequency
   DEG_THRESHOLD= 0.2000000E-02 threshold for treating states as degnerate
   RTIME   =   -0.100 relaxation time in fs
  (WPLASMAI=    0.000 imaginary part of plasma frequency in eV, 0.658/RTIME)
   DFIELD  = 0.0000000 0.0000000 0.0000000 field for delta impulse in time

 Orbital magnetization related:
   ORBITALMAG=     F  switch on orbital magnetization
   LCHIMAG   =     F  perturbation theory with respect to B field
   DQ        =  0.001000  dq finite difference perturbation B field
   LLRAUG    =     F  two centre corrections for induced B field



--------------------------------------------------------------------------------------------------------


 Static calculation
 charge density and potential will be updated during run
 non-spin polarized calculation
 Variant of blocked Davidson
 Davidson routine will perform the subspace rotation
 perform sub-space diagonalisation
    after iterative eigenvector-optimisation
 modified Broyden-mixing scheme, WC =      100.0
 initial mixing is a Kerker type mixing with AMIX =  0.4000 and BMIX =      1.0000
 Hartree-type preconditioning will be used
 using additional bands           40
 real space projection scheme for non local part
 use partial core corrections
 calculate Harris-corrections to forces   (improved forces if not selfconsistent)
 use gradient corrections 
 use of overlap-Matrix (Vanderbilt PP)
 Gauss-broadening in eV      SIGMA  =   0.01


--------------------------------------------------------------------------------------------------------


  energy-cutoff  :      300.00
  volume of cell :     1600.27
      direct lattice vectors                 reciprocal lattice vectors
     8.420018000  0.000000000  8.077981000     0.059382296 -0.000000000  0.061896655
     0.000000000 11.763808000  0.000000000     0.000000000  0.085006488 -0.000000000
    -8.420018000  0.000000000  8.077981000    -0.059382296  0.000000000  0.061896655

  length of vectors
    11.668353789 11.763808000 11.668353789     0.085775596  0.085006488  0.085775596



 k-points in units of 2pi/SCALE and weight: 1x1x1                                   
   0.00000000  0.00000000  0.00000000       0.125
   0.02969115  0.00000000  0.03094833       0.125
   0.00000000  0.04250324  0.00000000       0.125
   0.02969115  0.04250324  0.03094833       0.125
  -0.02969115  0.00000000  0.03094833       0.125
   0.00000000  0.00000000  0.06189665       0.125
  -0.02969115  0.04250324  0.03094833       0.125
   0.00000000  0.04250324  0.06189665       0.125

 k-points in reciprocal lattice and weights: 1x1x1                                   
   0.00000000  0.00000000  0.00000000       0.125
   0.50000000  0.00000000  0.00000000       0.125
   0.00000000  0.50000000  0.00000000       0.125
   0.50000000  0.50000000  0.00000000       0.125
   0.00000000  0.00000000  0.50000000       0.125
   0.50000000  0.00000000  0.50000000       0.125
   0.00000000  0.50000000  0.50000000       0.125
   0.50000000  0.50000000  0.50000000       0.125

 position of ions in fractional coordinates (direct lattice) 
   0.27212500  0.25000000  0.20823600
   0.81055934  0.24426255  0.77598116
   0.87452867  0.73234645  0.29832725
   0.28007793  0.79087773  0.79316940
   0.27365212  0.28134461  0.73433154
   0.78742489  0.19528617  0.32257867
   0.71949888  0.78529340  0.82615781
   0.32428813  0.77630387  0.33199026
   0.00564433  0.97228897  0.02694476
   0.53004095  0.01778669  0.50543392
   0.49586490  0.06954332  0.01624324
   0.04617809  0.95885955  0.53234366
   0.51789688  0.52584535  0.04075817
   0.06437789  0.49260599  0.47164309
   0.01053658  0.48444924  0.98268512
   0.55283213  0.54537929  0.53789008
   0.49901099  0.79564391  0.06704362
   0.08012672  0.72175273  0.55756623
   0.97979973  0.23749700  0.03105989
   0.58036344  0.28664816  0.50785692
   0.06979703  0.73892442  0.04444436
   0.50435989  0.78780497  0.61610562
   0.56598437  0.29136415  0.07842921
   0.04705028  0.22382685  0.51300484
   0.26129851  0.45443272  0.98976101
   0.81111025  0.50870056  0.50651092
   0.57968466  0.59222173  0.29156996
   0.00935064  0.46707843  0.74975710
   0.58058424  0.09088271  0.76760836
   0.07969508  0.98268461  0.27007200
   0.75385645  0.00555846  0.07655953
   0.29358457  0.01950681  0.56841948
   0.25150171  0.07318700  0.95717211
   0.77941883  0.92057332  0.50537256
   0.49552666  0.05074638  0.26876317
   0.96131738  0.97867936  0.76720718
   0.75833985  0.54653582  0.98484319
   0.33074270  0.45107114  0.43437490
   0.50584294  0.51888798  0.78252729
   0.98564982  0.45752737  0.23208090

 position of ions in cartesian coordinates  (Angst):
   0.53794653  2.94095200  3.88034703
   0.29114886  2.87345775 12.81604405
   4.85162629  8.61518303  9.47430787
  -4.32023941  9.30373380  8.66967154
  -3.87892893  3.30968401  8.14247286
   3.91401355  2.29730903  8.96658771
  -0.89807017  9.23804075 12.48578536
  -0.06485209  9.13228964  5.30140440
  -0.17935001 11.43782072  0.26325409
   0.20719164  0.20923923  8.36454625
   4.03842297  0.81809427  4.13679983
  -4.09352287 11.27983963  4.67328770
   4.01751648  6.18594372  4.51280486
  -3.42918037  5.79492225  4.32996726
  -8.18550820  5.69896785  8.02322595
   0.12581231  6.41573721  8.81083324
   3.63717302  9.35980222  4.57257832
  -4.02004929  8.49056054  5.15127152
   7.98840650  2.79386908  8.16570483
   0.61050625  3.37207387  8.79062340
   0.21346992  8.69256500  0.92283979
  -0.94090102  9.26758639  9.05109909
   4.10522323  3.42755186  5.20556069
  -3.92334577  2.63305606  4.52411465
  -6.13366739  5.34585928 10.10603505
   2.56473187  5.98425568 10.64371883
   2.42593093  6.96678272  7.03797822
  -6.23423569  5.49462093  6.13205790
  -1.57474647  1.06912678 10.89067424
  -1.60297713 11.56011312  2.82541180
   5.70285226  0.06538861  6.70808444
  -2.31411486  0.22947437  6.96325237
  -5.94175749  0.86095786  9.76364417
   2.30747448 10.82944775 10.37852041
   1.90935264  0.59697064  6.17391868
   1.63441144 11.51299613 13.96298857
  -1.90716217  6.42934243 14.08139947
  -0.87258506  5.30631425  6.18060545
  -2.32968723  6.10409861 10.40743023
   6.34506392  5.38226409  9.83680559



--------------------------------------------------------------------------------------------------------


 k-point  1 :   0.0000 0.0000 0.0000  plane waves:   18901
 k-point  2 :   0.5000 0.0000 0.0000  plane waves:   18892
 k-point  3 :   0.0000 0.5000 0.0000  plane waves:   18858
 k-point  4 :   0.5000 0.5000 0.0000  plane waves:   18900
 k-point  5 :   0.0000 0.0000 0.5000  plane waves:   18892
 k-point  6 :   0.5000 0.0000 0.5000  plane waves:   18810
 k-point  7 :   0.0000 0.5000 0.5000  plane waves:   18900
 k-point  8 :   0.5000 0.5000 0.5000  plane waves:   18888

 maximum and minimum number of plane-waves per node :      2391     2328

 maximum number of plane-waves:     18901
 maximum index in each direction: 
   IXMAX=   16   IYMAX=   16   IZMAX=   16
   IXMIN=  -16   IYMIN=  -17   IZMIN=  -16


 real space projection operators:
  total allocation   :      17035.79 KBytes
  max/ min on nodes  :       2237.42       1853.34


 parallel 3D FFT for wavefunctions:
    minimum data exchange during FFTs selected (reduces bandwidth)
 parallel 3D FFT for charge:
    minimum data exchange during FFTs selected (reduces bandwidth)


 total amount of memory used by VASP MPI-rank0    61010. kBytes
=======================================================================

   base      :      30000. kBytes
   nonlr-proj:       6585. kBytes
   fftplans  :       8423. kBytes
   grid      :       7465. kBytes
   one-center:         77. kBytes
   wavefun   :       8460. kBytes

     INWAV:  cpu time    0.0001: real time    0.0001
 Broyden mixing: mesh for mixing (old mesh)
   NGX = 33   NGY = 33   NGZ = 33
  (NGX  =140   NGY  =140   NGZ  =140)
  gives a total of  35937 points

 initial charge density was supplied:
 charge density of overlapping atoms calculated
 number of electron     352.0000000 magnetization 
 keeping initial charge density in first step


--------------------------------------------------------------------------------------------------------


 Maximum index for non-local projection operator          778
 Maximum index for augmentation-charges         2820 (set IRDMAX)


--------------------------------------------------------------------------------------------------------


 First call to EWALD:  gamma=   0.152
 Maximum number of real-space cells 3x 3x 3
 Maximum number of reciprocal cells 3x 3x 3

    FEWALD:  cpu time    0.0035: real time    0.0035


--------------------------------------- Iteration      1(   1)  ---------------------------------------


    POTLOK:  cpu time    0.2608: real time    0.2728
    SETDIJ:  cpu time    1.2001: real time    1.2001
     EDDAV:  cpu time   16.8506: real time   16.8565
       DOS:  cpu time    0.0008: real time    0.0008
    --------------------------------------------
      LOOP:  cpu time   18.3123: real time   18.3303

 eigenvalue-minimisations  :  3536
 total energy-change (2. order) : 0.1377103E+04  (-0.1123191E+05)
 number of electron     352.0000000 magnetization 
 augmentation part      352.0000000 magnetization 

 Free energy of the ion-electron system (eV)
  ---------------------------------------------------
  alpha Z        PSCENC =       901.86909112
  Ewald energy   TEWEN  =    -18391.69312977
  -Hartree energ DENC   =     -7378.10358027
  -exchange      EXHF   =         0.00000000
  -V(xc)+E(xc)   XCENC  =       924.51353886
  PAW double counting   =     21633.96174531   -22707.92185401
  entropy T*S    EENTRO =        -0.00171104
  eigenvalues    EBANDS =      -186.08095691
  atomic energy  EATOM  =     26580.56019858
  Solvation  Ediel_sol  =         0.00000000
  ---------------------------------------------------
  free energy    TOTEN  =      1377.10334187 eV

  energy without entropy =     1377.10505292  energy(sigma->0) =     1377.10419739


--------------------------------------------------------------------------------------------------------




--------------------------------------- Iteration      1(   2)  ---------------------------------------


     EDDAV:  cpu time   18.6719: real time   18.6805
       DOS:  cpu time    0.0004: real time    0.0004
    --------------------------------------------
      LOOP:  cpu time   18.6724: real time   18.6810

 eigenvalue-minimisations  :  4152
 total energy-change (2. order) :-0.2497280E+04  (-0.2388878E+04)
 number of electron     352.0000000 magnetization 
 augmentation part      352.0000000 magnetization 

 Free energy of the ion-electron system (eV)
  ---------------------------------------------------
  alpha Z        PSCENC =       901.86909112
  Ewald energy   TEWEN  =    -18391.69312977
  -Hartree energ DENC   =     -7378.10358027
  -exchange      EXHF   =         0.00000000
  -V(xc)+E(xc)   XCENC  =       924.51353886
  PAW double counting   =     21633.96174531   -22707.92185401
  entropy T*S    EENTRO =        -0.00000000
  eigenvalues    EBANDS =     -2683.36268976
  atomic energy  EATOM  =     26580.56019858
  Solvation  Ediel_sol  =         0.00000000
  ---------------------------------------------------
  free energy    TOTEN  =     -1120.17667994 eV

  energy without entropy =    -1120.17667994  energy(sigma->0) =    -1120.17667994


--------------------------------------------------------------------------------------------------------




--------------------------------------- Iteration      1(   3)  ---------------------------------------


     EDDAV:  cpu time   20.1040: real time   20.1451
       DOS:  cpu time    0.0004: real time    0.0004
    --------------------------------------------
      LOOP:  cpu time   20.1043: real time   20.1455

 eigenvalue-minimisations  :  4664
 total energy-change (2. order) :-0.3738514E+03  (-0.3712253E+03)
 number of electron     352.0000000 magnetization 
 augmentation part      352.0000000 magnetization 

 Free energy of the ion-electron system (eV)
  ---------------------------------------------------
  alpha Z        PSCENC =       901.86909112
  Ewald energy   TEWEN  =    -18391.69312977
  -Hartree energ DENC   =     -7378.10358027
  -exchange      EXHF   =         0.00000000
  -V(xc)+E(xc)   XCENC  =       924.51353886
  PAW double counting   =     21633.96174531   -22707.92185401
  entropy T*S    EENTRO =        -0.00000000
  eigenvalues    EBANDS =     -3057.21411904
  atomic energy  EATOM  =     26580.56019858
  Solvation  Ediel_sol  =         0.00000000
  ---------------------------------------------------
  free energy    TOTEN  =     -1494.02810922 eV

  energy without entropy =    -1494.02810922  energy(sigma->0) =    -1494.02810922


--------------------------------------------------------------------------------------------------------




--------------------------------------- Iteration      1(   4)  ---------------------------------------


     EDDAV:  cpu time   18.3439: real time   18.3819
       DOS:  cpu time    0.0004: real time    0.0004
    --------------------------------------------
      LOOP:  cpu time   18.3444: real time   18.3823

 eigenvalue-minimisations  :  4048
 total energy-change (2. order) :-0.1265922E+02  (-0.1261559E+02)
 number of electron     352.0000000 magnetization 
 augmentation part      352.0000000 magnetization 

 Free energy of the ion-electron system (eV)
  ---------------------------------------------------
  alpha Z        PSCENC =       901.86909112
  Ewald energy   TEWEN  =    -18391.69312977
  -Hartree energ DENC   =     -7378.10358027
  -exchange      EXHF   =         0.00000000
  -V(xc)+E(xc)   XCENC  =       924.51353886
  PAW double counting   =     21633.96174531   -22707.92185401
  entropy T*S    EENTRO =        -0.00000000
  eigenvalues    EBANDS =     -3069.87333595
  atomic energy  EATOM  =     26580.56019858
  Solvation  Ediel_sol  =         0.00000000
  ---------------------------------------------------
  free energy    TOTEN  =     -1506.68732612 eV

  energy without entropy =    -1506.68732612  energy(sigma->0) =    -1506.68732612


--------------------------------------------------------------------------------------------------------




--------------------------------------- Iteration      1(   5)  ---------------------------------------


     EDDAV:  cpu time   19.6774: real time   19.7099
       DOS:  cpu time    0.0005: real time    0.0005
    CHARGE:  cpu time    2.7767: real time    2.7768
    MIXING:  cpu time    0.0014: real time    0.0014
    --------------------------------------------
      LOOP:  cpu time   22.4561: real time   22.4886

 eigenvalue-minimisations  :  4520
 total energy-change (2. order) :-0.6057319E+00  (-0.6054311E+00)
 number of electron     352.0000000 magnetization 
 augmentation part       -6.5281724 magnetization 

 Broyden mixing:
  rms(total) = 0.10836E+01    rms(broyden)= 0.10833E+01
  rms(prec ) = 0.15027E+01
  weight for this iteration     100.00

 Free energy of the ion-electron system (eV)
  ---------------------------------------------------
  alpha Z        PSCENC =       901.86909112
  Ewald energy   TEWEN  =    -18391.69312977
  -Hartree energ DENC   =     -7378.10358027
  -exchange      EXHF   =         0.00000000
  -V(xc)+E(xc)   XCENC  =       924.51353886
  PAW double counting   =     21633.96174531   -22707.92185401
  entropy T*S    EENTRO =        -0.00000000
  eigenvalues    EBANDS =     -3070.47906788
  atomic energy  EATOM  =     26580.56019858
  Solvation  Ediel_sol  =         0.00000000
  ---------------------------------------------------
  free energy    TOTEN  =     -1507.29305805 eV

  energy without entropy =    -1507.29305805  energy(sigma->0) =    -1507.29305805


--------------------------------------------------------------------------------------------------------




--------------------------------------- Iteration      1(   6)  ---------------------------------------


    POTLOK:  cpu time    0.2539: real time    0.3001
    SETDIJ:  cpu time    1.1916: real time    1.1916
     EDDAV:  cpu time   19.6308: real time   19.6315
       DOS:  cpu time    0.0013: real time    0.0013
    CHARGE:  cpu time    2.7561: real time    2.7562
    MIXING:  cpu time    0.0015: real time    0.0015
    --------------------------------------------
      LOOP:  cpu time   23.8352: real time   23.8823

 eigenvalue-minimisations  :  4496
 total energy-change (2. order) : 0.8072746E+02  (-0.2353472E+01)
 number of electron     352.0000000 magnetization 
 augmentation part       -5.1969483 magnetization 

 Broyden mixing:
  rms(total) = 0.75331E+00    rms(broyden)= 0.75320E+00
  rms(prec ) = 0.94966E+00
  weight for this iteration     100.00

 eigenvalues of (default mixing * dielectric matrix)
  average eigenvalue GAMMA=   1.2729
  1.2729

 Free energy of the ion-electron system (eV)
  ---------------------------------------------------
  alpha Z        PSCENC =       901.86909112
  Ewald energy   TEWEN  =    -18391.69312977
  -Hartree energ DENC   =     -7360.05324570
  -exchange      EXHF   =         0.00000000
  -V(xc)+E(xc)   XCENC  =       955.44144373
  PAW double counting   =     21961.45700145   -23033.74823261
  entropy T*S    EENTRO =        -0.00000000
  eigenvalues    EBANDS =     -3040.39872899
  atomic energy  EATOM  =     26580.56019858
  Solvation  Ediel_sol  =         0.00000000
  ---------------------------------------------------
  free energy    TOTEN  =     -1426.56560220 eV

  energy without entropy =    -1426.56560220  energy(sigma->0) =    -1426.56560220


--------------------------------------------------------------------------------------------------------




--------------------------------------- Iteration      1(   7)  ---------------------------------------


    POTLOK:  cpu time    0.2496: real time    0.3037
    SETDIJ:  cpu time    1.1928: real time    1.1928
     EDDAV:  cpu time   18.3665: real time   18.3672
       DOS:  cpu time    0.0005: real time    0.0005
    CHARGE:  cpu time    2.7557: real time    2.7558
    MIXING:  cpu time    0.0016: real time    0.0016
    --------------------------------------------
      LOOP:  cpu time   22.5667: real time   22.6216

 eigenvalue-minimisations  :  4056
 total energy-change (2. order) : 0.5385015E+00  (-0.1106753E+01)
 number of electron     352.0000000 magnetization 
 augmentation part       -4.4850772 magnetization 

 Broyden mixing:
  rms(total) = 0.39180E+00    rms(broyden)= 0.39178E+00
  rms(prec ) = 0.43386E+00
  weight for this iteration     100.00

 eigenvalues of (default mixing * dielectric matrix)
  average eigenvalue GAMMA=   1.2967
  1.2967  1.2967

 Free energy of the ion-electron system (eV)
  ---------------------------------------------------
  alpha Z        PSCENC =       901.86909112
  Ewald energy   TEWEN  =    -18391.69312977
  -Hartree energ DENC   =     -7403.75202463
  -exchange      EXHF   =         0.00000000
  -V(xc)+E(xc)   XCENC  =       961.03728194
  PAW double counting   =     22681.64842423   -23752.15102111
  entropy T*S    EENTRO =        -0.00000000
  eigenvalues    EBANDS =     -3003.54592109
  atomic energy  EATOM  =     26580.56019858
  Solvation  Ediel_sol  =         0.00000000
  ---------------------------------------------------
  free energy    TOTEN  =     -1426.02710073 eV

  energy without entropy =    -1426.02710073  energy(sigma->0) =    -1426.02710073


--------------------------------------------------------------------------------------------------------




--------------------------------------- Iteration      1(   8)  ---------------------------------------


    POTLOK:  cpu time    0.2563: real time    0.3031
    SETDIJ:  cpu time    1.1917: real time    1.1918
     EDDAV:  cpu time   17.9778: real time   17.9786
       DOS:  cpu time    0.0004: real time    0.0004
    CHARGE:  cpu time    2.7523: real time    2.7524
    MIXING:  cpu time    0.0017: real time    0.0017
    --------------------------------------------
      LOOP:  cpu time   22.1802: real time   22.2281

 eigenvalue-minimisations  :  3928
 total energy-change (2. order) :-0.1787661E+00  (-0.6646056E-01)
 number of electron     352.0000000 magnetization 
 augmentation part       -4.6197328 magnetization 

 Broyden mixing:
  rms(total) = 0.24433E+00    rms(broyden)= 0.24432E+00
  rms(prec ) = 0.27366E+00
  weight for this iteration     100.00

 eigenvalues of (default mixing * dielectric matrix)
  average eigenvalue GAMMA=   1.6931
  1.2060  1.2060  2.6672

 Free energy of the ion-electron system (eV)
  ---------------------------------------------------
  alpha Z        PSCENC =       901.86909112
  Ewald energy   TEWEN  =    -18391.69312977
  -Hartree energ DENC   =     -7406.85369299
  -exchange      EXHF   =         0.00000000
  -V(xc)+E(xc)   XCENC  =       961.32870660
  PAW double counting   =     22898.15420365   -23969.18162343
  entropy T*S    EENTRO =        -0.00000000
  eigenvalues    EBANDS =     -3000.38962057
  atomic energy  EATOM  =     26580.56019858
  Solvation  Ediel_sol  =         0.00000000
  ---------------------------------------------------
  free energy    TOTEN  =     -1426.20586682 eV

  energy without entropy =    -1426.20586682  energy(sigma->0) =    -1426.20586682


--------------------------------------------------------------------------------------------------------




--------------------------------------- Iteration      1(   9)  ---------------------------------------


    POTLOK:  cpu time    0.2986: real time    0.3009
    SETDIJ:  cpu time    1.1917: real time    1.1917
     EDDAV:  cpu time   18.0015: real time   18.0025
       DOS:  cpu time    0.0012: real time    0.0012
    CHARGE:  cpu time    2.7549: real time    2.7550
    MIXING:  cpu time    0.0016: real time    0.0016
    --------------------------------------------
      LOOP:  cpu time   22.2495: real time   22.2530

 eigenvalue-minimisations  :  3928
 total energy-change (2. order) :-0.6519883E-01  (-0.2276549E-01)
 number of electron     352.0000000 magnetization 
 augmentation part       -4.6630619 magnetization 

 Broyden mixing:
  rms(total) = 0.50727E-01    rms(broyden)= 0.50721E-01
  rms(prec ) = 0.58350E-01
  weight for this iteration     100.00

 eigenvalues of (default mixing * dielectric matrix)
  average eigenvalue GAMMA=   1.4668
  2.5853  1.2362  1.2362  0.8095

 Free energy of the ion-electron system (eV)
  ---------------------------------------------------
  alpha Z        PSCENC =       901.86909112
  Ewald energy   TEWEN  =    -18391.69312977
  -Hartree energ DENC   =     -7413.71561569
  -exchange      EXHF   =         0.00000000
  -V(xc)+E(xc)   XCENC  =       963.42445585
  PAW double counting   =     23263.14253416   -24335.34142708
  entropy T*S    EENTRO =        -0.00000000
  eigenvalues    EBANDS =     -2994.51717284
  atomic energy  EATOM  =     26580.56019858
  Solvation  Ediel_sol  =         0.00000000
  ---------------------------------------------------
  free energy    TOTEN  =     -1426.27106566 eV

  energy without entropy =    -1426.27106566  energy(sigma->0) =    -1426.27106566


--------------------------------------------------------------------------------------------------------




--------------------------------------- Iteration      1(  10)  ---------------------------------------


    POTLOK:  cpu time    0.2555: real time    0.2834
    SETDIJ:  cpu time    1.1911: real time    1.1911
     EDDAV:  cpu time   20.4449: real time   20.4460
       DOS:  cpu time    0.0004: real time    0.0004
    CHARGE:  cpu time    2.7605: real time    2.7606
    MIXING:  cpu time    0.0018: real time    0.0018
    --------------------------------------------
      LOOP:  cpu time   24.6543: real time   24.6833

 eigenvalue-minimisations  :  4792
 total energy-change (2. order) :-0.3678842E-02  (-0.2831962E-02)
 number of electron     352.0000000 magnetization 
 augmentation part       -4.6506968 magnetization 

 Broyden mixing:
  rms(total) = 0.34989E-01    rms(broyden)= 0.34987E-01
  rms(prec ) = 0.41386E-01
  weight for this iteration     100.00

 eigenvalues of (default mixing * dielectric matrix)
  average eigenvalue GAMMA=   1.3180
  2.4920  1.2882  1.2882  0.7608  0.7608

 Free energy of the ion-electron system (eV)
  ---------------------------------------------------
  alpha Z        PSCENC =       901.86909112
  Ewald energy   TEWEN  =    -18391.69312977
  -Hartree energ DENC   =     -7411.72094360
  -exchange      EXHF   =         0.00000000
  -V(xc)+E(xc)   XCENC  =       963.25680183
  PAW double counting   =     23231.52474690   -24303.79258772
  entropy T*S    EENTRO =        -0.00000000
  eigenvalues    EBANDS =     -2996.27892184
  atomic energy  EATOM  =     26580.56019858
  Solvation  Ediel_sol  =         0.00000000
  ---------------------------------------------------
  free energy    TOTEN  =     -1426.27474450 eV

  energy without entropy =    -1426.27474450  energy(sigma->0) =    -1426.27474450


--------------------------------------------------------------------------------------------------------




--------------------------------------- Iteration      1(  11)  ---------------------------------------


    POTLOK:  cpu time    0.2576: real time    0.2851
    SETDIJ:  cpu time    1.1956: real time    1.1956
     EDDAV:  cpu time   18.4452: real time   18.4459
       DOS:  cpu time    0.0010: real time    0.0010
    CHARGE:  cpu time    2.7692: real time    2.7693
    MIXING:  cpu time    0.0016: real time    0.0016
    --------------------------------------------
      LOOP:  cpu time   22.6701: real time   22.6985

 eigenvalue-minimisations  :  4088
 total energy-change (2. order) :-0.1878565E-02  (-0.2782435E-03)
 number of electron     352.0000000 magnetization 
 augmentation part       -4.6509377 magnetization 

 Broyden mixing:
  rms(total) = 0.17318E-01    rms(broyden)= 0.17318E-01
  rms(prec ) = 0.22505E-01
  weight for this iteration     100.00

 eigenvalues of (default mixing * dielectric matrix)
  average eigenvalue GAMMA=   1.6131
  2.7822  2.7822  1.2058  1.2058  0.8513  0.8513

 Free energy of the ion-electron system (eV)
  ---------------------------------------------------
  alpha Z        PSCENC =       901.86909112
  Ewald energy   TEWEN  =    -18391.69312977
  -Hartree energ DENC   =     -7410.07797454
  -exchange      EXHF   =         0.00000000
  -V(xc)+E(xc)   XCENC  =       963.17474398
  PAW double counting   =     23211.11282853   -24283.54422286
  entropy T*S    EENTRO =        -0.00000000
  eigenvalues    EBANDS =     -2997.67815809
  atomic energy  EATOM  =     26580.56019858
  Solvation  Ediel_sol  =         0.00000000
  ---------------------------------------------------
  free energy    TOTEN  =     -1426.27662306 eV

  energy without entropy =    -1426.27662306  energy(sigma->0) =    -1426.27662306


--------------------------------------------------------------------------------------------------------




--------------------------------------- Iteration      1(  12)  ---------------------------------------


    POTLOK:  cpu time    0.2796: real time    0.2872
    SETDIJ:  cpu time    1.1955: real time    1.1956
     EDDAV:  cpu time   17.5370: real time   17.5379
       DOS:  cpu time    0.0012: real time    0.0011
    CHARGE:  cpu time    2.7648: real time    2.7649
    MIXING:  cpu time    0.0016: real time    0.0016
    --------------------------------------------
      LOOP:  cpu time   21.7797: real time   21.7884

 eigenvalue-minimisations  :  3776
 total energy-change (2. order) :-0.2808280E-02  (-0.4636974E-03)
 number of electron     352.0000000 magnetization 
 augmentation part       -4.6536773 magnetization 

 Broyden mixing:
  rms(total) = 0.93865E-02    rms(broyden)= 0.93853E-02
  rms(prec ) = 0.11671E-01
  weight for this iteration     100.00

 eigenvalues of (default mixing * dielectric matrix)
  average eigenvalue GAMMA=   1.5505
  2.8150  2.8150  1.2775  1.2775  0.8937  0.8873  0.8873

 Free energy of the ion-electron system (eV)
  ---------------------------------------------------
  alpha Z        PSCENC =       901.86909112
  Ewald energy   TEWEN  =    -18391.69312977
  -Hartree energ DENC   =     -7408.54762044
  -exchange      EXHF   =         0.00000000
  -V(xc)+E(xc)   XCENC  =       963.17659055
  PAW double counting   =     23194.22572128   -24266.93483043
  entropy T*S    EENTRO =        -0.00000000
  eigenvalues    EBANDS =     -2998.93545223
  atomic energy  EATOM  =     26580.56019858
  Solvation  Ediel_sol  =         0.00000000
  ---------------------------------------------------
  free energy    TOTEN  =     -1426.27943134 eV

  energy without entropy =    -1426.27943134  energy(sigma->0) =    -1426.27943134


--------------------------------------------------------------------------------------------------------




--------------------------------------- Iteration      1(  13)  ---------------------------------------


    POTLOK:  cpu time    0.2703: real time    0.2971
    SETDIJ:  cpu time    1.1962: real time    1.1962
     EDDAV:  cpu time   20.3915: real time   20.3924
       DOS:  cpu time    0.0005: real time    0.0005
    CHARGE:  cpu time    2.7639: real time    2.7640
    MIXING:  cpu time    0.0020: real time    0.0020
    --------------------------------------------
      LOOP:  cpu time   24.6244: real time   24.6522

 eigenvalue-minimisations  :  4776
 total energy-change (2. order) : 0.3520766E-03  (-0.8750168E-04)
 number of electron     352.0000000 magnetization 
 augmentation part       -4.6547338 magnetization 

 Broyden mixing:
  rms(total) = 0.61473E-02    rms(broyden)= 0.61468E-02
  rms(prec ) = 0.72286E-02
  weight for this iteration     100.00

 eigenvalues of (default mixing * dielectric matrix)
  average eigenvalue GAMMA=   1.4831
  2.9997  2.7001  1.3427  1.3427  0.9887  0.9887  0.9034  0.5985

 Free energy of the ion-electron system (eV)
  ---------------------------------------------------
  alpha Z        PSCENC =       901.86909112
  Ewald energy   TEWEN  =    -18391.69312977
  -Hartree energ DENC   =     -7409.13391263
  -exchange      EXHF   =         0.00000000
  -V(xc)+E(xc)   XCENC  =       963.21810152
  PAW double counting   =     23195.17856614   -24267.85470307
  entropy T*S    EENTRO =        -0.00000000
  eigenvalues    EBANDS =     -2998.42329115
  atomic energy  EATOM  =     26580.56019858
  Solvation  Ediel_sol  =         0.00000000
  ---------------------------------------------------
  free energy    TOTEN  =     -1426.27907927 eV

  energy without entropy =    -1426.27907927  energy(sigma->0) =    -1426.27907927


--------------------------------------------------------------------------------------------------------




--------------------------------------- Iteration      1(  14)  ---------------------------------------


    POTLOK:  cpu time    0.2716: real time    0.3020
    SETDIJ:  cpu time    1.1959: real time    1.1959
     EDDAV:  cpu time   18.5118: real time   18.5126
       DOS:  cpu time    0.0006: real time    0.0006
    CHARGE:  cpu time    2.7679: real time    2.7679
    MIXING:  cpu time    0.0020: real time    0.0020
    --------------------------------------------
      LOOP:  cpu time   22.7498: real time   22.7810

 eigenvalue-minimisations  :  4120
 total energy-change (2. order) : 0.1406497E-03  (-0.2061427E-04)
 number of electron     352.0000000 magnetization 
 augmentation part       -4.6535014 magnetization 

 Broyden mixing:
  rms(total) = 0.29714E-02    rms(broyden)= 0.29707E-02
  rms(prec ) = 0.35315E-02
  weight for this iteration     100.00

 eigenvalues of (default mixing * dielectric matrix)
  average eigenvalue GAMMA=   1.4855
  3.2020  2.3198  1.7939  1.2348  0.9704  0.9704  1.0201  0.9288  0.9288

 Free energy of the ion-electron system (eV)
  ---------------------------------------------------
  alpha Z        PSCENC =       901.86909112
  Ewald energy   TEWEN  =    -18391.69312977
  -Hartree energ DENC   =     -7409.44145322
  -exchange      EXHF   =         0.00000000
  -V(xc)+E(xc)   XCENC  =       963.23856991
  PAW double counting   =     23195.77737473   -24268.43028538
  entropy T*S    EENTRO =        -0.00000000
  eigenvalues    EBANDS =     -2998.15930457
  atomic energy  EATOM  =     26580.56019858
  Solvation  Ediel_sol  =         0.00000000
  ---------------------------------------------------
  free energy    TOTEN  =     -1426.27893862 eV

  energy without entropy =    -1426.27893862  energy(sigma->0) =    -1426.27893862


--------------------------------------------------------------------------------------------------------




--------------------------------------- Iteration      1(  15)  ---------------------------------------


    POTLOK:  cpu time    0.2546: real time    0.2962
    SETDIJ:  cpu time    1.1954: real time    1.1954
     EDDAV:  cpu time   19.7129: real time   19.7137
       DOS:  cpu time    0.0005: real time    0.0005
    CHARGE:  cpu time    2.7677: real time    2.7678
    MIXING:  cpu time    0.0022: real time    0.0022
    --------------------------------------------
      LOOP:  cpu time   23.9334: real time   23.9759

 eigenvalue-minimisations  :  4536
 total energy-change (2. order) : 0.6450371E-04  (-0.2725505E-05)
 number of electron     352.0000000 magnetization 
 augmentation part       -4.6535734 magnetization 

 Broyden mixing:
  rms(total) = 0.15909E-02    rms(broyden)= 0.15898E-02
  rms(prec ) = 0.19060E-02
  weight for this iteration     100.00

 eigenvalues of (default mixing * dielectric matrix)
  average eigenvalue GAMMA=   1.5256
  3.3889  2.2685  1.8415  1.8415  1.1830  1.1830  0.9504  0.9504  0.8976  0.7514

 Free energy of the ion-electron system (eV)
  ---------------------------------------------------
  alpha Z        PSCENC =       901.86909112
  Ewald energy   TEWEN  =    -18391.69312977
  -Hartree energ DENC   =     -7409.58186893
  -exchange      EXHF   =         0.00000000
  -V(xc)+E(xc)   XCENC  =       963.24603668
  PAW double counting   =     23196.29577920   -24268.93535800
  entropy T*S    EENTRO =        -0.00000000
  eigenvalues    EBANDS =     -2998.03962298
  atomic energy  EATOM  =     26580.56019858
  Solvation  Ediel_sol  =         0.00000000
  ---------------------------------------------------
  free energy    TOTEN  =     -1426.27887411 eV

  energy without entropy =    -1426.27887411  energy(sigma->0) =    -1426.27887411


--------------------------------------------------------------------------------------------------------




--------------------------------------- Iteration      1(  16)  ---------------------------------------


    POTLOK:  cpu time    0.2875: real time    0.2985
    SETDIJ:  cpu time    1.1973: real time    1.1973
     EDDAV:  cpu time   17.6771: real time   17.6779
       DOS:  cpu time    0.0007: real time    0.0007
    CHARGE:  cpu time    2.7600: real time    2.7601
    MIXING:  cpu time    0.0022: real time    0.0022
    --------------------------------------------
      LOOP:  cpu time   21.9247: real time   21.9367

 eigenvalue-minimisations  :  3808
 total energy-change (2. order) : 0.1335467E-04  (-0.1380054E-05)
 number of electron     352.0000000 magnetization 
 augmentation part       -4.6532873 magnetization 

 Broyden mixing:
  rms(total) = 0.49494E-03    rms(broyden)= 0.49136E-03
  rms(prec ) = 0.63865E-03
  weight for this iteration     100.00

 eigenvalues of (default mixing * dielectric matrix)
  average eigenvalue GAMMA=   1.5895
  3.5916  2.6462  2.5488  1.7180  0.9829  0.9829  1.1786  1.0578  1.0578  0.9032
  0.8173

 Free energy of the ion-electron system (eV)
  ---------------------------------------------------
  alpha Z        PSCENC =       901.86909112
  Ewald energy   TEWEN  =    -18391.69312977
  -Hartree energ DENC   =     -7409.62840810
  -exchange      EXHF   =         0.00000000
  -V(xc)+E(xc)   XCENC  =       963.24557627
  PAW double counting   =     23196.24553665   -24268.87682581
  entropy T*S    EENTRO =        -0.00000000
  eigenvalues    EBANDS =     -2998.00089969
  atomic energy  EATOM  =     26580.56019858
  Solvation  Ediel_sol  =         0.00000000
  ---------------------------------------------------
  free energy    TOTEN  =     -1426.27886076 eV

  energy without entropy =    -1426.27886076  energy(sigma->0) =    -1426.27886076


--------------------------------------------------------------------------------------------------------




--------------------------------------- Iteration      1(  17)  ---------------------------------------


    POTLOK:  cpu time    0.2888: real time    0.2997
    SETDIJ:  cpu time    1.1955: real time    1.1956
     EDDAV:  cpu time   16.9887: real time   16.9898
       DOS:  cpu time    0.0007: real time    0.0007
    CHARGE:  cpu time    2.7672: real time    2.7672
    MIXING:  cpu time    0.0024: real time    0.0024
    --------------------------------------------
      LOOP:  cpu time   21.2433: real time   21.2553

 eigenvalue-minimisations  :  3560
 total energy-change (2. order) : 0.1404004E-04  (-0.5402520E-06)
 number of electron     352.0000000 magnetization 
 augmentation part       -4.6531621 magnetization 

 Broyden mixing:
  rms(total) = 0.31613E-03    rms(broyden)= 0.31054E-03
  rms(prec ) = 0.35775E-03
  weight for this iteration     100.00

 eigenvalues of (default mixing * dielectric matrix)
  average eigenvalue GAMMA=   1.5270
  3.6184  2.6331  2.6331  1.6946  1.1871  1.0463  1.0463  1.0727  1.0727  0.9082
  0.7496  0.6625

 Free energy of the ion-electron system (eV)
  ---------------------------------------------------
  alpha Z        PSCENC =       901.86909112
  Ewald energy   TEWEN  =    -18391.69312977
  -Hartree energ DENC   =     -7409.65642495
  -exchange      EXHF   =         0.00000000
  -V(xc)+E(xc)   XCENC  =       963.24523855
  PAW double counting   =     23196.31838829   -24268.94557824
  entropy T*S    EENTRO =        -0.00000000
  eigenvalues    EBANDS =     -2997.97663029
  atomic energy  EATOM  =     26580.56019858
  Solvation  Ediel_sol  =         0.00000000
  ---------------------------------------------------
  free energy    TOTEN  =     -1426.27884672 eV

  energy without entropy =    -1426.27884672  energy(sigma->0) =    -1426.27884672


--------------------------------------------------------------------------------------------------------




--------------------------------------- Iteration      1(  18)  ---------------------------------------


    POTLOK:  cpu time    0.3018: real time    0.3050
    SETDIJ:  cpu time    1.1965: real time    1.1965
     EDDAV:  cpu time   13.6777: real time   13.6785
       DOS:  cpu time    0.0004: real time    0.0004
    CHARGE:  cpu time    2.7620: real time    2.7621
    MIXING:  cpu time    0.0022: real time    0.0022
    --------------------------------------------
      LOOP:  cpu time   17.9406: real time   17.9447

 eigenvalue-minimisations  :  2384
 total energy-change (2. order) : 0.1325562E-05  (-0.1296319E-06)
 number of electron     352.0000000 magnetization 
 augmentation part       -4.6531669 magnetization 

 Broyden mixing:
  rms(total) = 0.21312E-03    rms(broyden)= 0.20478E-03
  rms(prec ) = 0.23400E-03
  weight for this iteration     100.00

 eigenvalues of (default mixing * dielectric matrix)
  average eigenvalue GAMMA=   1.5407
  3.7758  2.7248  2.7248  1.4484  1.4484  1.1627  1.1627  1.0573  1.0573  0.9102
  0.7840  0.8865  0.8865

 Free energy of the ion-electron system (eV)
  ---------------------------------------------------
  alpha Z        PSCENC =       901.86909112
  Ewald energy   TEWEN  =    -18391.69312977
  -Hartree energ DENC   =     -7409.65587712
  -exchange      EXHF   =         0.00000000
  -V(xc)+E(xc)   XCENC  =       963.24492992
  PAW double counting   =     23196.41250240   -24269.04110745
  entropy T*S    EENTRO =        -0.00000000
  eigenvalues    EBANDS =     -2997.97545307
  atomic energy  EATOM  =     26580.56019858
  Solvation  Ediel_sol  =         0.00000000
  ---------------------------------------------------
  free energy    TOTEN  =     -1426.27884539 eV

  energy without entropy =    -1426.27884539  energy(sigma->0) =    -1426.27884539


--------------------------------------------------------------------------------------------------------




--------------------------------------- Iteration      1(  19)  ---------------------------------------


    POTLOK:  cpu time    0.2750: real time    0.3049
    SETDIJ:  cpu time    1.1958: real time    1.1958
     EDDAV:  cpu time   13.2547: real time   13.2552
       DOS:  cpu time    0.0004: real time    0.0004
    CHARGE:  cpu time    2.7601: real time    2.7603
    MIXING:  cpu time    0.0025: real time    0.0025
    --------------------------------------------
      LOOP:  cpu time   17.4885: real time   17.5192

 eigenvalue-minimisations  :  2232
 total energy-change (2. order) : 0.1689479E-05  (-0.6579883E-07)
 number of electron     352.0000000 magnetization 
 augmentation part       -4.6531696 magnetization 

 Broyden mixing:
  rms(total) = 0.16236E-03    rms(broyden)= 0.15126E-03
  rms(prec ) = 0.16773E-03
  weight for this iteration     100.00

 eigenvalues of (default mixing * dielectric matrix)
  average eigenvalue GAMMA=   1.5564
  4.0210  2.9214  2.6396  1.7902  1.7902  1.2037  1.2037  1.0699  1.0699  0.9010
  0.9010  0.9131  0.7705  0.5941

 Free energy of the ion-electron system (eV)
  ---------------------------------------------------
  alpha Z        PSCENC =       901.86909112
  Ewald energy   TEWEN  =    -18391.69312977
  -Hartree energ DENC   =     -7409.65888822
  -exchange      EXHF   =         0.00000000
  -V(xc)+E(xc)   XCENC  =       963.24480447
  PAW double counting   =     23196.45449403   -24269.08154526
  entropy T*S    EENTRO =        -0.00000000
  eigenvalues    EBANDS =     -2997.97386864
  atomic energy  EATOM  =     26580.56019858
  Solvation  Ediel_sol  =         0.00000000
  ---------------------------------------------------
  free energy    TOTEN  =     -1426.27884370 eV

  energy without entropy =    -1426.27884370  energy(sigma->0) =    -1426.27884370


--------------------------------------------------------------------------------------------------------




--------------------------------------- Iteration      1(  20)  ---------------------------------------


    POTLOK:  cpu time    0.2621: real time    0.2961
    SETDIJ:  cpu time    1.1972: real time    1.1973
     EDDAV:  cpu time   13.0446: real time   13.0450
       DOS:  cpu time    0.0005: real time    0.0005
    CHARGE:  cpu time    2.7615: real time    2.7616
    MIXING:  cpu time    0.0021: real time    0.0021
    --------------------------------------------
      LOOP:  cpu time   17.2681: real time   17.3027

 eigenvalue-minimisations  :  2160
 total energy-change (2. order) :-0.1437178E-05  (-0.3045824E-07)
 number of electron     352.0000000 magnetization 
 augmentation part       -4.6531582 magnetization 

 Broyden mixing:
  rms(total) = 0.12400E-03    rms(broyden)= 0.10907E-03
  rms(prec ) = 0.11817E-03
  weight for this iteration     100.00
  WARNING: grid for Broyden might be to small

 eigenvalues of (default mixing * dielectric matrix)
  average eigenvalue GAMMA=   1.4940
  4.0564  2.9643  2.5961  1.8058  1.8058  1.1979  1.1979  1.0759  1.0759  0.8961
  0.8961  0.9223  0.7611  0.5788  0.5788

 Free energy of the ion-electron system (eV)
  ---------------------------------------------------
  alpha Z        PSCENC =       901.86909112
  Ewald energy   TEWEN  =    -18391.69312977
  -Hartree energ DENC   =     -7409.65724026
  -exchange      EXHF   =         0.00000000
  -V(xc)+E(xc)   XCENC  =       963.24462444
  PAW double counting   =     23196.46774178   -24269.09577190
  entropy T*S    EENTRO =        -0.00000000
  eigenvalues    EBANDS =     -2997.97435913
  atomic energy  EATOM  =     26580.56019858
  Solvation  Ediel_sol  =         0.00000000
  ---------------------------------------------------
  free energy    TOTEN  =     -1426.27884514 eV

  energy without entropy =    -1426.27884514  energy(sigma->0) =    -1426.27884514


--------------------------------------------------------------------------------------------------------




--------------------------------------- Iteration      1(  21)  ---------------------------------------


    POTLOK:  cpu time    0.2494: real time    0.2940
    SETDIJ:  cpu time    1.1942: real time    1.1942
     EDDAV:  cpu time   12.9553: real time   12.9559
       DOS:  cpu time    0.0004: real time    0.0004
    --------------------------------------------
      LOOP:  cpu time   14.3992: real time   14.4445

 eigenvalue-minimisations  :  2128
 total energy-change (2. order) :-0.3760697E-06  (-0.1634949E-07)
 number of electron     352.0000000 magnetization 
 augmentation part       -4.6531582 magnetization 

 Free energy of the ion-electron system (eV)
  ---------------------------------------------------
  alpha Z        PSCENC =       901.86909112
  Ewald energy   TEWEN  =    -18391.69312977
  -Hartree energ DENC   =     -7409.65655930
  -exchange      EXHF   =         0.00000000
  -V(xc)+E(xc)   XCENC  =       963.24456757
  PAW double counting   =     23196.46809269   -24269.09552439
  entropy T*S    EENTRO =        -0.00000000
  eigenvalues    EBANDS =     -2997.97558201
  atomic energy  EATOM  =     26580.56019858
  Solvation  Ediel_sol  =         0.00000000
  ---------------------------------------------------
  free energy    TOTEN  =     -1426.27884552 eV

  energy without entropy =    -1426.27884552  energy(sigma->0) =    -1426.27884552


--------------------------------------------------------------------------------------------------------




 average (electrostatic) potential at core
  the test charge radii are     1.1312  1.1541  1.0178
  (the norm of the test charge is              1.0000)
       1 -55.1813       2 -54.8604       3 -55.2800       4 -55.5344       5 -55.1901
       6 -55.0535       7 -55.1661       8 -55.7309       9-101.7299      10-101.8500
      11-101.7193      12-101.9500      13-101.5600      14-101.9373      15-101.3077
      16-101.5744      17 -68.3033      18 -69.7433      19 -68.5557      20 -68.3524
      21 -69.0741      22 -69.1506      23 -69.3010      24 -68.6322      25 -68.7692
      26 -68.5077      27 -68.5290      28 -68.7936      29 -68.6256      30 -69.1775
      31 -68.6661      32 -69.3486      33 -69.1103      34 -68.7985      35 -69.3328
      36 -69.0817      37 -68.7490      38 -68.8341      39 -68.7947      40 -68.9356



 E-fermi :   0.3450     XC(G=0):  -8.0727     alpha+bet : -7.0744


 k-point     1 :       0.0000    0.0000    0.0000
  band No.  band energies     occupation 
      1     -21.2487      2.00000
      2     -21.0682      2.00000
      3     -20.8287      2.00000
      4     -20.7337      2.00000
      5     -20.7238      2.00000
      6     -20.7145      2.00000
      7     -20.5881      2.00000
      8     -20.4318      2.00000
      9     -16.7728      2.00000
     10     -16.7081      2.00000
     11     -16.6733      2.00000
     12     -16.6413      2.00000
     13     -16.6334      2.00000
     14     -16.6278      2.00000
     15     -16.6219      2.00000
     16     -16.6189      2.00000
     17     -16.5942      2.00000
     18     -16.5883      2.00000
     19     -16.5831      2.00000
     20     -16.5473      2.00000
     21     -16.5333      2.00000
     22     -16.5246      2.00000
     23     -16.5077      2.00000
     24     -16.4999      2.00000
     25     -16.4955      2.00000
     26     -16.4856      2.00000
     27     -16.4617      2.00000
     28     -16.4176      2.00000
     29     -16.4019      2.00000
     30     -16.3904      2.00000
     31     -16.3860      2.00000
     32     -16.3735      2.00000
     33     -16.3635      2.00000
     34     -16.3359      2.00000
     35     -16.3249      2.00000
     36     -16.3121      2.00000
     37     -16.2810      2.00000
     38     -16.2602      2.00000
     39     -16.2286      2.00000
     40     -16.2280      2.00000
     41     -16.2133      2.00000
     42     -16.2091      2.00000
     43     -16.2083      2.00000
     44     -16.1744      2.00000
     45     -16.1035      2.00000
     46     -16.0130      2.00000
     47     -15.9895      2.00000
     48     -15.9685      2.00000
     49     -14.8027      2.00000
     50     -14.5479      2.00000
     51     -14.4054      2.00000
     52     -14.2736      2.00000
     53     -14.2524      2.00000
     54     -14.1894      2.00000
     55     -14.1439      2.00000
     56     -14.0888      2.00000
     57     -14.0529      2.00000
     58     -13.9736      2.00000
     59     -13.9250      2.00000
     60     -13.8574      2.00000
     61     -13.8180      2.00000
     62     -13.7838      2.00000
     63     -13.7406      2.00000
     64     -13.6757      2.00000
     65     -13.6394      2.00000
     66     -13.6043      2.00000
     67     -13.5765      2.00000
     68     -13.5537      2.00000
     69     -13.4554      2.00000
     70     -13.3920      2.00000
     71     -13.2536      2.00000
     72     -13.1985      2.00000
     73      -8.2554      2.00000
     74      -7.9000      2.00000
     75      -7.7698      2.00000
     76      -7.6717      2.00000
     77      -7.6275      2.00000
     78      -7.6052      2.00000
     79      -7.5641      2.00000
     80      -7.4761      2.00000
     81      -7.4718      2.00000
     82      -7.4611      2.00000
     83      -7.3497      2.00000
     84      -7.2788      2.00000
     85      -7.2266      2.00000
     86      -7.2198      2.00000
     87      -7.2041      2.00000
     88      -7.1837      2.00000
     89      -7.1716      2.00000
     90      -7.1565      2.00000
     91      -7.1408      2.00000
     92      -7.1202      2.00000
[...]
 total charge-density along one line

 pseudopotential strength for first ion, spin component:           1
 17.933  -4.694  -0.003   0.003  -0.000   0.004  -0.004  -0.000
 -4.694   1.238   0.001  -0.001  -0.000  -0.001   0.001   0.000
 -0.003   0.001   2.250   0.000  -0.000  -2.688  -0.000   0.000
  0.003  -0.001   0.000   2.249   0.001  -0.000  -2.686  -0.001
 -0.000  -0.000  -0.000   0.001   2.252   0.000  -0.001  -2.691
  0.004  -0.001  -2.688  -0.000   0.000   3.178   0.000  -0.001
 -0.004   0.001  -0.000  -2.686  -0.001   0.000   3.176   0.001
 -0.000   0.000   0.000  -0.001  -2.691  -0.001   0.001   3.182
 -0.000   0.000  -0.000   0.001  -0.002   0.000  -0.002   0.003
  0.000  -0.000   0.001  -0.001   0.001  -0.002   0.002  -0.002
 -0.001   0.000   0.001   0.002  -0.001  -0.001  -0.002   0.001
  0.001  -0.000   0.001  -0.001   0.002  -0.002   0.001  -0.003
  0.001  -0.000   0.001   0.000   0.001  -0.002  -0.000  -0.001
 total augmentation occupancy for first ion, spin component:           1
  1.915  -0.133  -0.001   0.001   0.001  -0.002   0.002  -0.001  -0.000   0.000  -0.002   0.001   0.001
 -0.133   0.142  -0.008   0.008   0.000   0.002  -0.003   0.012  -0.004  -0.002   0.001  -0.006  -0.005
 -0.001  -0.008   2.020   0.000  -0.001   0.006   0.000  -0.001   0.001   0.003   0.002   0.003   0.002
  0.001   0.008   0.000   2.014   0.002   0.000   0.002   0.001   0.003  -0.003   0.003  -0.001   0.000
  0.001   0.000  -0.001   0.002   2.025  -0.001   0.001   0.010  -0.004   0.003  -0.002   0.003   0.002
 -0.002   0.002   0.006   0.000  -0.001   0.012  -0.001  -0.001   0.003  -0.000  -0.000  -0.003  -0.000
  0.002  -0.003   0.000   0.002   0.001  -0.001   0.011  -0.001  -0.003   0.000  -0.001   0.003  -0.000
 -0.001   0.012  -0.001   0.001   0.010  -0.001  -0.001   0.009   0.000  -0.003  -0.001  -0.001   0.001
 -0.000  -0.004   0.001   0.003  -0.004   0.003  -0.003   0.000   0.008  -0.003  -0.001  -0.000   0.000
  0.000  -0.002   0.003  -0.003   0.003  -0.000   0.000  -0.003  -0.003   0.010   0.000  -0.002   0.001
 -0.002   0.001   0.002   0.003  -0.002  -0.000  -0.001  -0.001  -0.001   0.000   0.004   0.000  -0.000
  0.001  -0.006   0.003  -0.001   0.003  -0.003   0.003  -0.001  -0.000  -0.002   0.000   0.007   0.001
  0.001  -0.005   0.002   0.000   0.002  -0.000  -0.000   0.001   0.000   0.001  -0.000   0.001   0.004


------------------------ aborting loop because EDIFF is reached ----------------------------------------





 total charge     

# of ion       s       p       d       tot
------------------------------------------
    1        1.789   4.720   0.024   6.532
    2        1.790   4.721   0.028   6.540
    3        1.789   4.718   0.024   6.531
    4        1.786   4.719   0.020   6.525
    5        1.786   4.719   0.020   6.525
    6        1.787   4.718   0.021   6.525
    7        1.788   4.719   0.024   6.531
    8        1.785   4.716   0.018   6.519
    9        1.549   0.426   9.830  11.805
   10        1.547   0.430   9.831  11.808
   11        1.548   0.436   9.831  11.814
   12        1.549   0.430   9.832  11.810
   13        1.544   0.425   9.831  11.800
   14        1.540   0.426   9.825  11.791
   15        1.548   0.463   9.839  11.849
   16        1.547   0.416   9.830  11.793
   17        1.613   3.270   0.004   4.887
   18        1.620   3.292   0.011   4.922
   19        1.615   3.284   0.007   4.906
   20        1.614   3.275   0.005   4.894
   21        1.616   3.279   0.007   4.902
   22        1.617   3.300   0.008   4.924
   23        1.620   3.285   0.010   4.915
   24        1.612   3.277   0.004   4.893
   25        1.614   3.291   0.006   4.912
   26        1.616   3.272   0.006   4.894
   27        1.616   3.279   0.007   4.902
   28        1.619   3.293   0.010   4.921
   29        1.615   3.285   0.005   4.904
   30        1.615   3.282   0.006   4.903
   31        1.614   3.272   0.005   4.891
   32        1.617   3.288   0.008   4.913
   33        1.616   3.285   0.007   4.907
   34        1.614   3.277   0.005   4.896
   35        1.619   3.296   0.010   4.925
   36        1.616   3.282   0.007   4.904
   37        1.616   3.290   0.007   4.913
   38        1.616   3.269   0.006   4.891
   39        1.616   3.282   0.007   4.905
   40        1.620   3.276   0.009   4.905
--------------------------------------------------
tot         65.456 119.978  78.993 264.428

    CHARGE:  cpu time    0.3862: real time    0.3862
    FORLOC:  cpu time    0.0115: real time    0.0115
    FORNL :  cpu time    1.9291: real time    1.9292
    STRESS:  cpu time   51.1577: real time   51.1597
    FORCOR:  cpu time    0.2401: real time    0.2402
    FORHAR:  cpu time    0.0277: real time    0.0277
    MIXING:  cpu time    0.0022: real time    0.0022
    OFIELD:  cpu time    0.0001: real time    0.0001

  FORCE on cell =-STRESS in cart. coord.  units (eV):
  Direction    XX          YY          ZZ          XY          YZ          ZX
  --------------------------------------------------------------------------------------
  Alpha Z   901.86909   901.86909   901.86909
  Ewald   -6130.47835 -6131.41559 -6129.87921    -4.12065    31.03102  -176.25947
  Hartree  2473.75359  2477.27163  2458.62553    -4.92037    13.53461  -103.05096
  E(xc)   -1478.20682 -1478.18013 -1478.00607    -0.00499    -0.03203    -0.18291
  Local   -2881.49287 -2884.66694 -2867.22045     9.19310   -42.28519   278.44130
  n-local  1800.25981  1798.62589  1799.84822    -0.61042    -0.18628    -2.84666
  augment   814.11900   813.11938   812.77281    -0.10565     0.07762    -0.15581
  Kinetic  4499.43169  4506.72536  4508.56046     0.68874    -2.36362     1.35406
  Fock        0.00000     0.00000     0.00000     0.00000     0.00000     0.00000
  -------------------------------------------------------------------------------------
  Total      -0.74484     3.34869     6.57039     0.11977    -0.22387    -2.70046
  in kB      -0.74573     3.35267     6.57821     0.11991    -0.22414    -2.70367
  external pressure =        3.06 kB  Pullay stress =        0.00 kB


 VOLUME and BASIS-vectors are now :
 -----------------------------------------------------------------------------
  energy-cutoff  :      300.00
  volume of cell :     1600.27
      direct lattice vectors                 reciprocal lattice vectors
     8.420018000  0.000000000  8.077981000     0.059382296 -0.000000000  0.061896655
     0.000000000 11.763808000  0.000000000     0.000000000  0.085006488 -0.000000000
    -8.420018000  0.000000000  8.077981000    -0.059382296  0.000000000  0.061896655

  length of vectors
    11.668353789 11.763808000 11.668353789     0.085775596  0.085006488  0.085775596


 FORCES acting on ions
    electron-ion (+dipol)            ewald-force                    non-local-force                 convergence-correction
 -----------------------------------------------------------------------------------------------
   0.564E+02 -.186E+02 -.265E+02   -.565E+02 0.189E+02 0.262E+02   -.297E+00 -.215E+00 0.231E+00   -.233E-03 0.270E-05 -.191E-03
   -.597E+01 -.217E+02 0.356E+02   0.602E+01 0.216E+02 -.355E+02   0.218E+00 0.473E+00 -.832E-01   0.251E-03 0.426E-04 0.911E-04
   0.697E+01 -.133E+02 0.656E+02   -.752E+01 0.129E+02 -.663E+02   0.508E+00 0.343E+00 0.714E-01   0.220E-04 -.803E-04 0.937E-04
   0.359E+02 0.438E+02 -.204E+02   -.358E+02 -.437E+02 0.208E+02   -.512E+00 -.160E+00 -.146E+00   -.151E-03 -.242E-04 -.116E-03
   -.179E+02 -.138E+02 -.303E+01   0.179E+02 0.139E+02 0.299E+01   0.273E+00 0.590E-01 0.653E-01   -.723E-04 0.301E-04 -.228E-03
   -.210E+02 -.318E+02 -.840E+01   0.211E+02 0.322E+02 0.834E+01   0.263E+00 -.110E+00 0.648E-01   0.809E-04 0.266E-04 0.267E-03
   -.316E+02 0.132E+02 -.189E+02   0.313E+02 -.131E+02 0.188E+02   0.419E+00 0.141E+00 0.182E+00   0.132E-03 -.539E-04 0.101E-03
   -.220E+02 0.323E+02 0.597E+02   0.228E+02 -.324E+02 -.597E+02   -.571E+00 -.228E-02 -.142E+00   -.928E-04 0.360E-05 -.947E-04
   -.107E+02 0.352E+02 0.143E+02   0.121E+02 -.329E+02 -.155E+02   -.138E+01 -.161E+01 0.102E+01   0.609E-04 -.840E-04 0.601E-04
   -.292E+02 -.203E+02 -.217E+02   0.301E+02 0.211E+02 0.250E+02   -.113E+01 -.344E+00 -.211E+01   -.260E-04 -.859E-04 -.108E-03
   -.370E+02 0.525E+02 0.515E+02   0.390E+02 -.560E+02 -.521E+02   -.126E+01 0.265E+01 0.705E+00   -.152E-03 -.243E-03 0.412E-04
   0.132E+02 -.244E+02 0.150E+02   -.125E+02 0.266E+02 -.172E+02   -.101E+01 -.130E+01 0.172E+01   0.163E-03 0.143E-04 0.207E-04
   0.584E+02 -.486E+02 0.174E+02   -.619E+02 0.514E+02 -.190E+02   0.342E+01 -.215E+01 0.169E+01   -.156E-05 0.221E-03 0.391E-04
   -.443E+02 0.228E+02 -.522E+02   0.449E+02 -.247E+02 0.551E+02   -.911E+00 0.839E+00 -.322E+01   -.137E-03 0.709E-04 -.145E-03
   -.127E+02 -.641E+02 0.101E+02   0.978E+01 0.669E+02 -.878E+01   0.264E+01 -.273E+01 -.945E+00   0.772E-04 0.112E-03 0.225E-04
   0.106E+02 -.678E+01 -.347E+02   -.105E+02 0.768E+01 0.361E+02   0.353E+00 -.155E+01 -.164E+01   0.132E-03 0.145E-03 0.100E-03
   0.223E+02 0.624E+01 0.422E+01   -.225E+02 -.617E+01 -.362E+01   0.321E+00 -.252E-01 -.109E+01   -.489E-04 -.531E-05 0.289E-05
   0.285E+02 0.281E+02 -.580E+02   -.291E+02 -.284E+02 0.584E+02   0.759E+00 0.269E+00 -.286E+00   -.545E-04 0.167E-04 0.317E-05
   0.327E+02 0.137E+02 0.205E+01   -.332E+02 -.140E+02 -.195E+01   0.561E+00 0.132E+00 -.745E-01   0.228E-04 0.220E-04 0.926E-04
   -.620E+01 0.390E+01 -.117E+02   0.633E+01 -.396E+01 0.117E+02   -.304E+00 -.250E+00 0.127E+00   0.379E-04 0.456E-04 0.320E-04
   -.362E+02 0.356E+02 -.471E+02   0.363E+02 -.362E+02 0.476E+02   -.320E-01 0.258E+00 -.469E+00   0.214E-04 0.183E-04 0.673E-05
   0.394E+02 0.194E+02 -.227E+02   -.397E+02 -.195E+02 0.229E+02   0.670E+00 -.185E-02 -.640E+00   0.225E-04 0.486E-05 -.623E-04
   -.222E+02 -.208E+02 -.680E+02   0.224E+02 0.209E+02 0.690E+02   -.183E+00 0.429E-01 -.711E+00   -.285E-04 -.222E-04 0.204E-04
   0.377E+01 -.162E+02 0.450E+01   -.373E+01 0.162E+02 -.443E+01   -.109E+00 0.171E+00 -.168E+00   0.165E-06 -.121E-05 -.551E-04
   -.257E+02 -.191E+02 -.125E+02   0.261E+02 0.190E+02 0.126E+02   -.314E+00 0.240E+00 0.661E-01   -.164E-03 0.113E-03 -.141E-03
   0.316E+02 0.612E+01 -.293E+01   -.317E+02 -.645E+01 0.277E+01   0.232E+00 0.390E+00 0.289E+00   0.392E-04 -.707E-06 0.785E-04
   -.398E+02 -.309E+02 -.177E+01   0.403E+02 0.311E+02 0.189E+01   -.356E+00 -.202E+00 -.189E+00   -.344E-05 0.427E-04 0.101E-03
   -.406E+02 -.187E+02 0.461E+02   0.411E+02 0.188E+02 -.471E+02   0.347E+00 -.204E-01 0.591E+00   -.196E-04 0.911E-04 -.203E-04
   -.130E+02 -.250E+02 -.115E+02   0.133E+02 0.252E+02 0.116E+02   -.861E+00 -.752E+00 -.411E+00   0.846E-04 -.752E-04 -.235E-04
   -.197E+02 -.146E+02 -.344E+02   0.198E+02 0.149E+02 0.348E+02   -.214E+00 -.334E+00 -.183E+00   -.264E-04 -.660E-05 -.308E-05
   0.241E+02 0.291E+02 -.183E+02   -.245E+02 -.291E+02 0.184E+02   0.723E+00 -.287E+00 0.946E-01   0.634E-04 -.484E-04 0.100E-03
   0.311E+02 -.388E+02 -.107E+02   -.315E+02 0.392E+02 0.108E+02   0.220E+00 -.476E+00 -.292E+00   -.107E-04 -.412E-04 -.124E-03
   -.857E+01 0.299E+01 0.527E+02   0.840E+01 -.273E+01 -.533E+02   0.637E-01 -.454E+00 0.463E+00   -.119E-03 -.704E-04 -.723E-04
   0.172E+01 0.352E+02 0.110E+02   -.200E+01 -.357E+02 -.109E+02   0.400E+00 0.659E+00 -.110E+00   0.537E-04 -.350E-04 0.917E-04
   0.801E+01 0.121E+02 0.140E+02   -.774E+01 -.120E+02 -.141E+02   -.296E+00 -.267E+00 -.174E+00   -.500E-04 -.869E-04 0.389E-04
   0.272E+02 0.614E+01 0.161E+02   -.276E+02 -.599E+01 -.164E+02   0.531E+00 -.271E+00 0.562E+00   0.601E-04 -.744E-04 0.356E-04
   -.233E+02 -.226E+02 -.310E+01   0.236E+02 0.227E+02 0.316E+01   -.404E+00 -.214E+00 0.131E+00   0.892E-04 0.724E-04 0.116E-03
   -.729E+01 0.309E+02 0.404E+02   0.761E+01 -.315E+02 -.406E+02   -.836E+00 0.936E+00 -.211E-01   -.667E-04 0.441E-04 -.275E-04
   0.149E+02 0.239E+02 0.200E+02   -.150E+02 -.240E+02 -.200E+02   -.179E+00 0.410E-01 0.330E-02   0.260E-04 0.103E-03 -.545E-04
   0.268E+02 0.220E+02 0.120E+02   -.271E+02 -.225E+02 -.125E+02   -.235E+00 0.550E+00 0.122E+01   0.376E-04 -.212E-04 0.479E-04
 -----------------------------------------------------------------------------------------------
   -.160E+01 0.556E+01 0.373E+01   0.107E-12 -.462E-13 0.103E-12   0.154E+01 -.552E+01 -.380E+01   0.198E-04 0.182E-03 0.139E-03


 POSITION                                       TOTAL-FORCE (eV/Angst)
 -----------------------------------------------------------------------------------
      0.53795      2.94095      3.88035        -0.447396      0.085133     -0.054863
      0.29115      2.87346     12.81604         0.253188      0.368753     -0.039465
      4.85163      8.61518      9.47431        -0.052598     -0.043723     -0.536653
     -4.32024      9.30373      8.66967        -0.402213     -0.072980      0.256528
     -3.87893      3.30968      8.14247         0.185589      0.109811      0.020571
      3.91401      2.29731      8.96659         0.316868      0.194341     -0.015360
     -0.89807      9.23804     12.48579         0.072673      0.289175      0.062980
     -0.06485      9.13229      5.30140         0.213862     -0.081763     -0.146668
     -0.17935     11.43782      0.26325        -0.054611      0.715289     -0.177503
      0.20719      0.20924      8.36455        -0.281586      0.466037      1.155957
      4.03842      0.81809      4.13680         0.762533     -0.941387      0.084317
     -4.09352     11.27984      4.67329        -0.314792      0.999757     -0.428687
      4.01752      6.18594      4.51280        -0.024103      0.655417      0.015524
     -3.42918      5.79492      4.32997        -0.357560     -1.111745     -0.221037
     -8.18551      5.69897      8.02323        -0.280708     -0.004204      0.442686
      0.12581      6.41574      8.81083         0.546409     -0.685523     -0.172948
      3.63717      9.35980      4.57258         0.183986      0.041782     -0.530102
     -4.02005      8.49056      5.15127         0.208490      0.013038      0.142522
      7.98841      2.79387      8.16570         0.120442     -0.067616      0.021112
      0.61051      3.37207      8.79062        -0.173907     -0.313823      0.098044
      0.21347      8.69256      0.92284         0.094676     -0.192110      0.004021
     -0.94090      9.26759      9.05110         0.338956     -0.055248     -0.406433
      4.10522      3.42755      5.20556         0.013040      0.043038      0.176596
     -3.92335      2.63306      4.52411        -0.073683      0.204820     -0.102573
     -6.13367      5.34586     10.10604         0.066014      0.119633      0.138260
      2.56473      5.98426     10.64372         0.150852      0.072424      0.145594
      2.42593      6.96678      7.03798         0.031244      0.063576     -0.079257
     -6.23424      5.49462      6.13206         0.801331      0.029951     -0.330708
     -1.57475      1.06913     10.89067        -0.619147     -0.511239     -0.376596
     -1.60298     11.56011      2.82541        -0.143893     -0.048156      0.195986
      5.70285      0.06539      6.70808         0.344280     -0.288223      0.150612
     -2.31411      0.22947      6.96325        -0.173175     -0.096435     -0.184967
     -5.94176      0.86096      9.76364        -0.079253     -0.220457     -0.101326
      2.30747     10.82945     10.37852         0.153920      0.247325     -0.005966
      1.90935      0.59697      6.17392        -0.051780     -0.165119     -0.259533
      1.63441     11.51300     13.96299         0.123718     -0.135050      0.248131
     -1.90716      6.42934     14.08140        -0.117569     -0.128443      0.190167
     -0.87259      5.30631      6.18061        -0.542403      0.407468     -0.229702
     -2.32969      6.10410     10.40743        -0.266866     -0.079499     -0.018808
      6.34506      5.38226      9.83681        -0.524829      0.115974      0.869545
 -----------------------------------------------------------------------------------
    total drift:                               -0.061123      0.033646     -0.066436


--------------------------------------------------------------------------------------------------------



  FREE ENERGIE OF THE ION-ELECTRON SYSTEM (eV)
  ---------------------------------------------------
  free  energy   TOTEN  =     -1426.27884552 eV

  energy  without entropy=    -1426.27884552  energy(sigma->0) =    -1426.27884552



--------------------------------------------------------------------------------------------------------


    POTLOK:  cpu time    1.4286: real time    1.4287


--------------------------------------------------------------------------------------------------------


 stress matrix after NEB project (eV)
     -0.74484      0.11982     -2.70046
      0.11977      3.34869     -0.22361
     -2.70032     -0.22387      6.57039
  FORCES: max atom, RMS     1.277778    0.590158
  FORCE total and by dimension    3.732487    1.155957
  Stress total and by dimension    8.345748    6.570388
     LOOP+:  cpu time  495.9055: real time  496.5173
    4ORBIT:  cpu time    0.0000: real time    0.0000



 total charge     

# of ion       s       p       d       tot
------------------------------------------
    1        1.789   4.720   0.024   6.532
    2        1.790   4.721   0.028   6.540
    3        1.789   4.718   0.024   6.531
    4        1.786   4.719   0.020   6.525
    5        1.786   4.719   0.020   6.525
    6        1.787   4.718   0.021   6.525
    7        1.788   4.719   0.024   6.531
    8        1.785   4.716   0.018   6.519
    9        1.549   0.426   9.830  11.805
   10        1.547   0.430   9.831  11.808
   11        1.548   0.436   9.831  11.814
   12        1.549   0.430   9.832  11.810
   13        1.544   0.425   9.831  11.800
   14        1.540   0.426   9.825  11.791
   15        1.548   0.463   9.839  11.849
   16        1.547   0.416   9.830  11.793
   17        1.613   3.270   0.004   4.887
   18        1.620   3.292   0.011   4.922
   19        1.615   3.284   0.007   4.906
   20        1.614   3.275   0.005   4.894
   21        1.616   3.279   0.007   4.902
   22        1.617   3.300   0.008   4.924
   23        1.620   3.285   0.010   4.915
   24        1.612   3.277   0.004   4.893
   25        1.614   3.291   0.006   4.912
   26        1.616   3.272   0.006   4.894
   27        1.616   3.279   0.007   4.902
   28        1.619   3.293   0.010   4.921
   29        1.615   3.285   0.005   4.904
   30        1.615   3.282   0.006   4.903
   31        1.614   3.272   0.005   4.891
   32        1.617   3.288   0.008   4.913
   33        1.616   3.285   0.007   4.907
   34        1.614   3.277   0.005   4.896
   35        1.619   3.296   0.010   4.925
   36        1.616   3.282   0.007   4.904
   37        1.616   3.290   0.007   4.913
   38        1.616   3.269   0.006   4.891
   39        1.616   3.282   0.007   4.905
   40        1.620   3.276   0.009   4.905
--------------------------------------------------
tot         65.456 119.978  78.993 264.428


 total amount of memory used by VASP MPI-rank0    61010. kBytes
=======================================================================

   base      :      30000. kBytes
   nonlr-proj:       6585. kBytes
   fftplans  :       8423. kBytes
   grid      :       7465. kBytes
   one-center:         77. kBytes
   wavefun   :       8460. kBytes

  
  
 General timing and accounting informations for this job:
 ========================================================
  
                  Total CPU time used (sec):      508.389
                            User time (sec):      506.977
                          System time (sec):        1.412
                         Elapsed time (sec):      509.456
  
                   Maximum memory used (kb):       78352.
                   Average memory used (kb):           0.
  
                          Minor page faults:        20961
                          Major page faults:            1
                 Voluntary context switches:         2001
