 running on   64 total cores
 distrk:  each k-point on   64 cores,    1 groups
 distr:  one band on    8 cores,    8 groups
 using from now: INCAR     
 vasp.5.4.4.18Apr17-6-g9f103f2a35 (build Jun 22 2020 09:27:21) complex           
 POSCAR found type information on POSCAR  Cs Pb Br
 POSCAR found :  3 types and      40 ions
 scaLAPACK will be used
 LDA part: xc-table for Pade appr. of Perdew
 POSCAR found type information on POSCAR  Cs Pb Br
 POSCAR found :  3 types and      40 ions
 POSCAR, INCAR and KPOINTS ok, starting setup
 FFT: planning ...
 WAVECAR not read
 entering main loop
       N       E                     dE             d eps       ncg     rms          rms(c)
DAV:   1     0.137710334187E+04    0.13771E+04   -0.11232E+05  3536   0.965E+02
DAV:   2    -0.112017667994E+04   -0.24973E+04   -0.23889E+04  4152   0.297E+02
DAV:   3    -0.149402810922E+04   -0.37385E+03   -0.37123E+03  4664   0.136E+02
DAV:   4    -0.150668732612E+04   -0.12659E+02   -0.12616E+02  4048   0.329E+01
DAV:   5    -0.150729305805E+04   -0.60573E+00   -0.60543E+00  4520   0.564E+00    0.108E+01
DAV:   6    -0.142656560220E+04    0.80727E+02   -0.23535E+01  4496   0.340E+01    0.753E+00
DAV:   7    -0.142602710073E+04    0.53850E+00   -0.11068E+01  4056   0.645E+00    0.392E+00
DAV:   8    -0.142620586682E+04   -0.17877E+00   -0.66461E-01  3928   0.240E+00    0.244E+00
DAV:   9    -0.142627106566E+04   -0.65199E-01   -0.22765E-01  3928   0.146E+00    0.507E-01
DAV:  10    -0.142627474450E+04   -0.36788E-02   -0.28320E-02  4792   0.498E-01    0.350E-01
DAV:  11    -0.142627662306E+04   -0.18786E-02   -0.27824E-03  4088   0.151E-01    0.173E-01
DAV:  12    -0.142627943134E+04   -0.28083E-02   -0.46370E-03  3776   0.175E-01    0.939E-02
DAV:  13    -0.142627907927E+04    0.35208E-03   -0.87502E-04  4776   0.822E-02    0.615E-02
DAV:  14    -0.142627893862E+04    0.14065E-03   -0.20614E-04  4120   0.295E-02    0.297E-02
DAV:  15    -0.142627887411E+04    0.64504E-04   -0.27255E-05  4536   0.145E-02    0.159E-02
DAV:  16    -0.142627886076E+04    0.13355E-04   -0.13801E-05  3808   0.910E-03    0.495E-03
DAV:  17    -0.142627884672E+04    0.14040E-04   -0.54025E-06  3560   0.563E-03    0.316E-03
DAV:  18    -0.142627884539E+04    0.13256E-05   -0.12963E-06  2384   0.286E-03    0.213E-03
DAV:  19    -0.142627884370E+04    0.16895E-05   -0.65799E-07  2232   0.237E-03    0.162E-03
DAV:  20    -0.142627884514E+04   -0.14372E-05   -0.30458E-07  2160   0.147E-03    0.124E-03
DAV:  21    -0.142627884552E+04   -0.37607E-06   -0.16349E-07  2128   0.122E-03
   1 F= -.14262788E+04 E0= -.14262788E+04  d E =-.168839E-25
Application 1868385 resources: utime ~32463s, stime ~124s, Rss ~78352, inblocks ~1328, outblocks ~112168
