<?xml version="1.0" encoding="ISO-8859-1"?>
<modeling>
 <generator>
  <i name="program" type="string">vasp </i>
  <i name="version" type="string">5.4.4.18Apr17-6-g9f103f2a35  </i>
  <i name="subversion" type="string">(build Jun 22 2020 09:27:21) complex            parallel </i>
  <i name="platform" type="string">tx2_gcc-7.3_libsci-18.07_cray-fftw-3.3.8 </i>
  <i name="date" type="string">2021 09 22 </i>
  <i name="time" type="string">10:57:44 </i>
 </generator>
 <incar>
  <i type="string" name="SYSTEM"> CsPbBr3 cubic bulk</i>
  <i type="string" name="PREC">accurate</i>
  <i type="string" name="ALGO"> Normal   ! Electronic minimisation algo</i>
  <i type="logical" name="ADDGRID"> T  </i>
  <i type="int" name="NELM">   200</i>
  <i type="int" name="IBRION">     2</i>
  <i name="EDIFF">      0.00000100</i>
  <i name="EDIFFG">     -0.01000000</i>
  <i type="int" name="NSW">     0</i>
  <i type="int" name="ISIF">     3</i>
  <i type="int" name="ISYM">     2</i>
  <i name="ENCUT">    300.00000000</i>
  <i name="POTIM">      0.50000000</i>
  <i type="string" name="LREAL"> AUTO</i>
  <i type="int" name="ISMEAR">     0</i>
  <i name="SIGMA">      0.01000000</i>
  <i name="PSTRESS">      0.00000000</i>
  <i type="logical" name="LWAVE"> F  </i>
  <i type="logical" name="LCHARG"> F  </i>
  <i type="logical" name="LVHAR"> T  </i>
  <i type="int" name="LORBIT">    10</i>
  <i type="logical" name="LASPH"> T  </i>
  <v type="int" name="KPOINT_BSE">    -1     0     0     0</v>
  <i type="int" name="NELM">   200</i>
  <i type="string" name="METAGGA"> SCAN       ! PBE exchange-correlation</i>
  <i type="logical" name="LASPH"> T  </i>
 </incar>
 <structure name="primitive_cell" >
  <crystal>
   <varray name="basis" >
    <v>       8.42001800       0.00000000       8.07798100 </v>
    <v>       0.00000000      11.76380800       0.00000000 </v>
    <v>      -8.42001800       0.00000000       8.07798100 </v>
   </varray>
   <i name="volume">   1600.27186790 </i>
   <varray name="rec_basis" >
    <v>       0.05938230      -0.00000000       0.06189665 </v>
    <v>       0.00000000       0.08500649      -0.00000000 </v>
    <v>      -0.05938230       0.00000000       0.06189665 </v>
   </varray>
  </crystal>
  <varray name="positions" >
   <v>       0.27212500       0.25000000       0.20823600 </v>
   <v>       0.26129851       0.45443272      -0.01023899 </v>
   <v>       0.49552666       0.05074638       0.26876317 </v>
   <v>       0.33074270       0.45107114       0.43437490 </v>
   <v>       0.25150171       0.07318700      -0.04282789 </v>
   <v>      -0.43401563       0.29136415       0.07842921 </v>
   <v>      -0.02020027       0.23749700       0.03105989 </v>
   <v>       0.07969508      -0.01731539       0.27007200 </v>
   <v>       0.49586490       0.06954332       0.01624324 </v>
   <v>      -0.01435018       0.45752737       0.23208090 </v>
   <v>       0.04705028       0.22382685      -0.48699516 </v>
   <v>      -0.48210312      -0.47415465       0.04075817 </v>
   <v>       0.01053658       0.48444924      -0.01731488 </v>
   <v>       0.06437789       0.49260599       0.47164309 </v>
   <v>       0.00564433      -0.02771103       0.02694476 </v>
   <v>      -0.41963656       0.28664816      -0.49214308 </v>
   <v>       0.29358457       0.01950681      -0.43158052 </v>
   <v>      -0.46995905       0.01778669      -0.49456608 </v>
   <v>      -0.42031534      -0.40777827       0.29156996 </v>
   <v>       0.27365212       0.28134461      -0.26566846 </v>
   <v>       0.32428813      -0.22369613       0.33199026 </v>
   <v>       0.04617809      -0.04114045      -0.46765634 </v>
   <v>      -0.21257511       0.19528617       0.32257867 </v>
   <v>      -0.44716787      -0.45462071      -0.46210992 </v>
   <v>       0.49901099      -0.20435609       0.06704362 </v>
   <v>       0.06979703      -0.26107558       0.04444436 </v>
   <v>      -0.24614355       0.00555846       0.07655953 </v>
   <v>       0.00935064       0.46707843      -0.25024290 </v>
   <v>      -0.49415706      -0.48111202      -0.21747271 </v>
   <v>      -0.41941576       0.09088271      -0.23239164 </v>
   <v>      -0.03868262      -0.02132064      -0.23279282 </v>
   <v>      -0.18888975      -0.49129944      -0.49348908 </v>
   <v>      -0.18944066       0.24426255      -0.22401884 </v>
   <v>      -0.24166015      -0.45346418      -0.01515681 </v>
   <v>       0.28007793      -0.20912227      -0.20683060 </v>
   <v>       0.08012672      -0.27824727      -0.44243377 </v>
   <v>      -0.12547133      -0.26765355       0.29832725 </v>
   <v>      -0.49564011      -0.21219503      -0.38389438 </v>
   <v>      -0.22058117      -0.07942668      -0.49462744 </v>
   <v>      -0.28050112      -0.21470660      -0.17384219 </v>
  </varray>
 </structure>
 <varray name="primitive_index" >
  <v type="int" >        1 </v>
  <v type="int" >       25 </v>
  <v type="int" >       35 </v>
  <v type="int" >       38 </v>
  <v type="int" >       33 </v>
  <v type="int" >       23 </v>
  <v type="int" >       19 </v>
  <v type="int" >       30 </v>
  <v type="int" >       11 </v>
  <v type="int" >       40 </v>
  <v type="int" >       24 </v>
  <v type="int" >       13 </v>
  <v type="int" >       15 </v>
  <v type="int" >       14 </v>
  <v type="int" >        9 </v>
  <v type="int" >       20 </v>
  <v type="int" >       32 </v>
  <v type="int" >       10 </v>
  <v type="int" >       27 </v>
  <v type="int" >        5 </v>
  <v type="int" >        8 </v>
  <v type="int" >       12 </v>
  <v type="int" >        6 </v>
  <v type="int" >       16 </v>
  <v type="int" >       17 </v>
  <v type="int" >       21 </v>
  <v type="int" >       31 </v>
  <v type="int" >       28 </v>
  <v type="int" >       39 </v>
  <v type="int" >       29 </v>
  <v type="int" >       36 </v>
  <v type="int" >       26 </v>
  <v type="int" >        2 </v>
  <v type="int" >       37 </v>
  <v type="int" >        4 </v>
  <v type="int" >       18 </v>
  <v type="int" >        3 </v>
  <v type="int" >       22 </v>
  <v type="int" >       34 </v>
  <v type="int" >        7 </v>
 </varray>
 <kpoints>
  <generation param="Gamma">
   <v type="int" name="divisions">       2        2        2 </v>
   <v name="usershift">      0.00000000       0.00000000       0.00000000 </v>
   <v name="genvec1">      0.50000000       0.00000000       0.00000000 </v>
   <v name="genvec2">      0.00000000       0.50000000       0.00000000 </v>
   <v name="genvec3">      0.00000000       0.00000000       0.50000000 </v>
   <v name="shift">      0.00000000       0.00000000       0.00000000 </v>
  </generation>
  <varray name="kpointlist" >
   <v>       0.00000000       0.00000000       0.00000000 </v>
   <v>       0.50000000       0.00000000       0.00000000 </v>
   <v>       0.00000000       0.50000000       0.00000000 </v>
   <v>       0.50000000       0.50000000       0.00000000 </v>
   <v>       0.00000000       0.00000000       0.50000000 </v>
   <v>       0.50000000       0.00000000       0.50000000 </v>
   <v>       0.00000000       0.50000000       0.50000000 </v>
   <v>       0.50000000       0.50000000       0.50000000 </v>
  </varray>
  <varray name="weights" >
   <v>       0.12500000 </v>
   <v>       0.12500000 </v>
   <v>       0.12500000 </v>
   <v>       0.12500000 </v>
   <v>       0.12500000 </v>
   <v>       0.12500000 </v>
   <v>       0.12500000 </v>
   <v>       0.12500000 </v>
  </varray>
 </kpoints>
 <parameters>
  <separator name="general" >
   <i type="string" name="SYSTEM">CsPbBr3 cubic bulk</i>
   <i type="logical" name="LCOMPAT"> F  </i>
  </separator>
  <separator name="electronic" >
   <i type="string" name="PREC">accura</i>
   <i name="ENMAX">    300.00000000</i>
   <i name="ENAUG">    503.85200000</i>
   <i name="EDIFF">      0.00000100</i>
   <i type="int" name="IALGO">    38</i>
   <i type="int" name="IWAVPR">    10</i>
   <i type="int" name="NBANDS">   216</i>
   <i name="NELECT">    352.00000000</i>
   <i type="int" name="TURBO">     0</i>
   <i type="int" name="IRESTART">     0</i>
   <i type="int" name="NREBOOT">     0</i>
   <i type="int" name="NMIN">     0</i>
   <i name="EREF">      0.00000000</i>
   <separator name="electronic smearing" >
    <i type="int" name="ISMEAR">     0</i>
    <i name="SIGMA">      0.01000000</i>
    <i name="KSPACING">      0.50000000</i>
    <i type="logical" name="KGAMMA"> T  </i>
   </separator>
   <separator name="electronic projectors" >
    <i type="logical" name="LREAL"> T  </i>
    <v name="ROPT">     -0.00025000     -0.00025000     -0.00025000</v>
    <i type="int" name="LMAXPAW">  -100</i>
    <i type="int" name="LMAXMIX">     2</i>
    <i type="logical" name="NLSPLINE"> F  </i>
   </separator>
   <separator name="electronic startup" >
    <i type="int" name="ISTART">     0</i>
    <i type="int" name="ICHARG">     2</i>
    <i type="int" name="INIWAV">     1</i>
   </separator>
   <separator name="electronic spin" >
    <i type="int" name="ISPIN">     1</i>
    <i type="logical" name="LNONCOLLINEAR"> F  </i>
    <v name="MAGMOM">      1.00000000      1.00000000      1.00000000      1.00000000      1.00000000      1.00000000      1.00000000      1.00000000      1.00000000      1.00000000      1.00000000      1.00000000      1.00000000      1.00000000      1.00000000      1.00000000      1.00000000      1.00000000      1.00000000      1.00000000
      1.00000000      1.00000000      1.00000000      1.00000000      1.00000000      1.00000000      1.00000000      1.00000000      1.00000000      1.00000000      1.00000000      1.00000000      1.00000000      1.00000000      1.00000000      1.00000000      1.00000000      1.00000000      1.00000000      1.00000000
</v>
    <i name="NUPDOWN">     -1.00000000</i>
    <i type="logical" name="LSORBIT"> F  </i>
    <v name="SAXIS">      0.00000000      0.00000000      1.00000000</v>
    <i type="logical" name="LSPIRAL"> F  </i>
    <v name="QSPIRAL">      0.00000000      0.00000000      0.00000000</v>
    <i type="logical" name="LZEROZ"> F  </i>
   </separator>
   <separator name="electronic exchange-correlation" >
    <i type="logical" name="LASPH"> T  </i>
    <i type="logical" name="LMETAGGA"> F  </i>
   </separator>
   <separator name="electronic convergence" >
    <i type="int" name="NELM">   200</i>
    <i type="int" name="NELMDL">    -5</i>
    <i type="int" name="NELMIN">     2</i>
    <i name="ENINI">    300.00000000</i>
    <separator name="electronic convergence detail" >
     <i type="logical" name="LDIAG"> T  </i>
     <i type="logical" name="LSUBROT"> F  </i>
     <i name="WEIMIN">      0.00000000</i>
     <i name="EBREAK">      0.00000000</i>
     <i name="DEPER">      0.30000000</i>
     <i type="int" name="NRMM">     4</i>
     <i name="TIME">      0.40000000</i>
    </separator>
   </separator>
   <separator name="electronic mixer" >
    <i name="AMIX">      0.40000000</i>
    <i name="BMIX">      1.00000000</i>
    <i name="AMIN">      0.10000000</i>
    <i name="AMIX_MAG">      1.60000000</i>
    <i name="BMIX_MAG">      1.00000000</i>
    <separator name="electronic mixer details" >
     <i type="int" name="IMIX">     4</i>
     <i type="logical" name="MIXFIRST"> F  </i>
     <i type="int" name="MAXMIX">   -45</i>
     <i name="WC">    100.00000000</i>
     <i type="int" name="INIMIX">     1</i>
     <i type="int" name="MIXPRE">     1</i>
     <i type="int" name="MREMOVE">     5</i>
    </separator>
   </separator>
   <separator name="electronic dipolcorrection" >
    <i type="logical" name="LDIPOL"> F  </i>
    <i type="logical" name="LMONO"> F  </i>
    <i type="int" name="IDIPOL">     0</i>
    <i name="EPSILON">      1.00000000</i>
    <v name="DIPOL">   -100.00000000   -100.00000000   -100.00000000</v>
    <i name="EFIELD">      0.00000000</i>
   </separator>
  </separator>
  <separator name="grids" >
   <i type="int" name="NGX">    70</i>
   <i type="int" name="NGY">    70</i>
   <i type="int" name="NGZ">    70</i>
   <i type="int" name="NGXF">   140</i>
   <i type="int" name="NGYF">   140</i>
   <i type="int" name="NGZF">   140</i>
   <i type="logical" name="ADDGRID"> T  </i>
  </separator>
  <separator name="ionic" >
   <i type="int" name="NSW">     0</i>
   <i type="int" name="IBRION">    -1</i>
   <i type="int" name="MDALGO">     0</i>
   <i type="int" name="ISIF">     3</i>
   <i name="PSTRESS">      0.00000000</i>
   <i name="EDIFFG">     -0.01000000</i>
   <i type="int" name="NFREE">     1</i>
   <i name="POTIM">      0.50000000</i>
   <i name="SMASS">     -3.00000000</i>
   <i name="SCALEE">      1.00000000</i>
  </separator>
  <separator name="ionic md" >
   <i name="TEBEG">      0.00010000</i>
   <i name="TEEND">      0.00010000</i>
   <i type="int" name="NBLOCK">     1</i>
   <i type="int" name="KBLOCK">     1</i>
   <i type="int" name="NPACO">   256</i>
   <i name="APACO">     16.00000000</i>
  </separator>
  <separator name="symmetry" >
   <i type="int" name="ISYM">     2</i>
   <i name="SYMPREC">      0.00001000</i>
  </separator>
  <separator name="dos" >
   <i type="int" name="LORBIT">    10</i>
   <v name="RWIGS">     -1.00000000     -1.00000000     -1.00000000</v>
   <i type="int" name="NEDOS">   301</i>
   <i name="EMIN">     10.00000000</i>
   <i name="EMAX">    -10.00000000</i>
   <i name="EFERMI">      0.00000000</i>
  </separator>
  <separator name="writing" >
   <i type="int" name="NWRITE">     2</i>
   <i type="logical" name="LWAVE"> F  </i>
   <i type="logical" name="LDOWNSAMPLE"> F  </i>
   <i type="logical" name="LCHARG"> F  </i>
   <i type="logical" name="LPARD"> F  </i>
   <i type="logical" name="LVTOT"> F  </i>
   <i type="logical" name="LVHAR"> T  </i>
   <i type="logical" name="LELF"> F  </i>
   <i type="logical" name="LOPTICS"> F  </i>
   <v name="STM">      0.00000000      0.00000000      0.00000000      0.00000000      0.00000000      0.00000000      0.00000000</v>
  </separator>
  <separator name="performance" >
   <i type="int" name="NPAR">     8</i>
   <i type="int" name="NSIM">     4</i>
   <i type="int" name="NBLK">    -1</i>
   <i type="logical" name="LPLANE"> T  </i>
   <i type="logical" name="LSCALAPACK"> T  </i>
   <i type="logical" name="LSCAAWARE"> F  </i>
   <i type="logical" name="LSCALU"> F  </i>
   <i type="logical" name="LASYNC"> F  </i>
   <i type="logical" name="LORBITALREAL"> F  </i>
  </separator>
  <separator name="miscellaneous" >
   <i type="int" name="IDIOT">     3</i>
   <i type="int" name="ISPECIAL">     0</i>
   <i type="logical" name="LMUSIC"> F  </i>
   <v name="POMASS">    132.90000000    207.20000000     79.90400000</v>
   <v name="DARWINR">      0.00000000      0.00000000      0.00000000</v>
   <v name="DARWINV">      1.00000000      1.00000000      1.00000000</v>
   <i type="logical" name="LCORR"> T  </i>
  </separator>
  <i type="logical" name="GGA_COMPAT"> T  </i>
  <i type="logical" name="LBERRY"> F  </i>
  <i type="int" name="ICORELEVEL">     0</i>
  <i type="logical" name="LDAU"> F  </i>
  <i type="int" name="I_CONSTRAINED_M">     0</i>
  <separator name="electronic exchange-correlation" >
   <i type="string" name="GGA">--</i>
   <i type="int" name="VOSKOWN">     0</i>
   <i type="logical" name="LHFCALC"> F  </i>
   <i type="string" name="PRECFOCK"></i>
   <i type="logical" name="LSYMGRAD"> F  </i>
   <i type="logical" name="LHFONE"> F  </i>
   <i type="logical" name="LRHFCALC"> F  </i>
   <i type="logical" name="LTHOMAS"> F  </i>
   <i type="logical" name="LMODELHF"> F  </i>
   <i name="ENCUT4O">     -1.00000000</i>
   <i type="int" name="EXXOEP">     0</i>
   <i type="int" name="FOURORBIT">     0</i>
   <i name="AEXX">      0.00000000</i>
   <i name="HFALPHA">      0.00000000</i>
   <i name="MCALPHA">      0.00000000</i>
   <i name="ALDAX">      1.00000000</i>
   <i name="AGGAX">      1.00000000</i>
   <i name="ALDAC">      1.00000000</i>
   <i name="AGGAC">      1.00000000</i>
   <i type="int" name="NKREDX">     1</i>
   <i type="int" name="NKREDY">     1</i>
   <i type="int" name="NKREDZ">     1</i>
   <i type="logical" name="SHIFTRED"> F  </i>
   <i type="logical" name="ODDONLY"> F  </i>
   <i type="logical" name="EVENONLY"> F  </i>
   <i type="int" name="LMAXFOCK">     0</i>
   <i type="int" name="NMAXFOCKAE">     0</i>
   <i type="logical" name="LFOCKAEDFT"> F  </i>
   <i name="HFSCREEN">      0.00000000</i>
   <i name="HFSCREENC">      0.00000000</i>
   <i type="int" name="NBANDSGWLOW">     0</i>
  </separator>
  <separator name="vdW DFT" >
   <i type="logical" name="LUSE_VDW"> F  </i>
   <i name="Zab_VDW">     -0.84910000</i>
   <i name="PARAM1">      0.12340000</i>
   <i name="PARAM2">      1.00000000</i>
   <i name="PARAM3">      0.00000000</i>
  </separator>
  <separator name="model GW" >
   <i type="int" name="MODEL_GW">     0</i>
   <i name="MODEL_EPS0">     24.00407802</i>
   <i name="MODEL_ALPHA">      1.00000000</i>
  </separator>
  <separator name="linear response parameters" >
   <i type="logical" name="LEPSILON"> F  </i>
   <i type="logical" name="LRPA"> F  </i>
   <i type="logical" name="LNABLA"> F  </i>
   <i type="logical" name="LVEL"> F  </i>
   <i type="int" name="KINTER">     0</i>
   <i name="CSHIFT">      0.10000000</i>
   <i name="OMEGAMAX">     -1.00000000</i>
   <i name="DEG_THRESHOLD">      0.00200000</i>
   <i name="RTIME">     -0.10000000</i>
   <i name="WPLASMAI">      0.00000000</i>
   <v name="DFIELD">      0.00000000      0.00000000      0.00000000</v>
   <v name="WPLASMA">      0.00000000      0.00000000      0.00000000      0.00000000      0.00000000      0.00000000      0.00000000      0.00000000      0.00000000</v>
  </separator>
  <separator name="orbital magnetization" >
   <i type="logical" name="NUCIND"> F  </i>
   <v name="MAGPOS">      0.00000000      0.00000000      0.00000000</v>
   <i type="logical" name="LNICSALL"> T  </i>
   <i type="logical" name="ORBITALMAG"> F  </i>
   <i type="logical" name="LMAGBLOCH"> F  </i>
   <i type="logical" name="LCHIMAG"> F  </i>
   <i type="logical" name="LGAUGE"> T  </i>
   <i type="int" name="MAGATOM">     0</i>
   <v name="MAGDIPOL">      0.00000000      0.00000000      0.00000000</v>
   <v name="AVECCONST">      0.00000000      0.00000000      0.00000000</v>
  </separator>
  <separator name="response functions" >
   <i type="logical" name="LADDER"> F  </i>
   <i type="logical" name="LRPAFORCE"> F  </i>
   <i type="logical" name="LFXC"> F  </i>
   <i type="logical" name="LHARTREE"> T  </i>
   <i type="int" name="IBSE">     0</i>
   <v type="int" name="KPOINT">    -1     0     0     0</v>
   <i type="logical" name="LTCTE"> F  </i>
   <i type="logical" name="LTETE"> F  </i>
   <i type="logical" name="LTRIPLET"> F  </i>
   <i type="logical" name="LFXCEPS"> F  </i>
   <i type="logical" name="LFXHEG"> F  </i>
   <i type="int" name="NATURALO">     2</i>
   <i type="logical" name="L2ORDER"> F  </i>
   <i type="logical" name="LMP2LT"> F  </i>
   <i type="logical" name="LUSEW"> F  </i>
   <i name="ENCUTGW">     -2.00000000</i>
   <i name="ENCUTGWSOFT">     -2.00000000</i>
   <i name="ENCUTLF">     -1.00000000</i>
   <i type="int" name="LMAXMP2">    -1</i>
   <i name="SCISSOR">      0.00000000</i>
   <i type="int" name="NOMEGA">     0</i>
   <i type="int" name="NOMEGAR">     0</i>
   <i type="int" name="NBANDSGW">    -1</i>
   <i type="int" name="NBANDSO">    -1</i>
   <i type="int" name="NBANDSV">    -1</i>
   <i type="int" name="NELM">   200</i>
   <i type="int" name="NELMHF">     1</i>
   <i type="int" name="DIM">     3</i>
   <i type="int" name="ANTIRES">     0</i>
   <i name="OMEGAMAX">    -30.00000000</i>
   <i name="OMEGAMIN">    -30.00000000</i>
   <i name="OMEGATL">   -200.00000000</i>
   <i type="int" name="OMEGAGRID">   140</i>
   <i name="CSHIFT">     -0.10000000</i>
   <i type="logical" name="SELFENERGY"> F  </i>
   <i type="logical" name="LSPECTRAL"> F  </i>
   <i type="logical" name="LSPECTRALGW"> F  </i>
   <i type="logical" name="LSINGLES"> F  </i>
   <i type="logical" name="LFERMIGW"> F  </i>
   <i type="logical" name="ODDONLYGW"> F  </i>
   <i type="logical" name="EVENONLYGW"> F  </i>
   <i type="int" name="NKREDLFX">     1</i>
   <i type="int" name="NKREDLFY">     1</i>
   <i type="int" name="NKREDLFZ">     1</i>
   <i type="int" name="MAXMEM">  2800</i>
   <i type="int" name="TELESCOPE">     0</i>
   <i type="int" name="TAUPAR">     1</i>
   <i type="int" name="OMEGAPAR">    -1</i>
   <i name="LAMBDA">      1.00000000</i>
  </separator>
  <separator name="External order field" >
   <i name="OFIELD_KAPPA">      0.00000000</i>
   <v name="OFIELD_K">      0.00000000      0.00000000      0.00000000</v>
   <i name="OFIELD_Q6_NEAR">      0.00000000</i>
   <i name="OFIELD_Q6_FAR">      0.00000000</i>
   <i name="OFIELD_A">      0.00000000</i>
  </separator>
 </parameters>
 <atominfo>
  <atoms>      40 </atoms>
  <types>       3 </types>
  <array name="atoms" >
   <dimension dim="1">ion</dimension>
   <field type="string">element</field>
   <field type="int">atomtype</field>
   <set>
    <rc><c>Cs</c><c>   1</c></rc>
    <rc><c>Cs</c><c>   1</c></rc>
    <rc><c>Cs</c><c>   1</c></rc>
    <rc><c>Cs</c><c>   1</c></rc>
    <rc><c>Cs</c><c>   1</c></rc>
    <rc><c>Cs</c><c>   1</c></rc>
    <rc><c>Cs</c><c>   1</c></rc>
    <rc><c>Cs</c><c>   1</c></rc>
    <rc><c>Pb</c><c>   2</c></rc>
    <rc><c>Pb</c><c>   2</c></rc>
    <rc><c>Pb</c><c>   2</c></rc>
    <rc><c>Pb</c><c>   2</c></rc>
    <rc><c>Pb</c><c>   2</c></rc>
    <rc><c>Pb</c><c>   2</c></rc>
    <rc><c>Pb</c><c>   2</c></rc>
    <rc><c>Pb</c><c>   2</c></rc>
    <rc><c>Br</c><c>   3</c></rc>
    <rc><c>Br</c><c>   3</c></rc>
    <rc><c>Br</c><c>   3</c></rc>
    <rc><c>Br</c><c>   3</c></rc>
    <rc><c>Br</c><c>   3</c></rc>
    <rc><c>Br</c><c>   3</c></rc>
    <rc><c>Br</c><c>   3</c></rc>
    <rc><c>Br</c><c>   3</c></rc>
    <rc><c>Br</c><c>   3</c></rc>
    <rc><c>Br</c><c>   3</c></rc>
    <rc><c>Br</c><c>   3</c></rc>
    <rc><c>Br</c><c>   3</c></rc>
    <rc><c>Br</c><c>   3</c></rc>
    <rc><c>Br</c><c>   3</c></rc>
    <rc><c>Br</c><c>   3</c></rc>
    <rc><c>Br</c><c>   3</c></rc>
    <rc><c>Br</c><c>   3</c></rc>
    <rc><c>Br</c><c>   3</c></rc>
    <rc><c>Br</c><c>   3</c></rc>
    <rc><c>Br</c><c>   3</c></rc>
    <rc><c>Br</c><c>   3</c></rc>
    <rc><c>Br</c><c>   3</c></rc>
    <rc><c>Br</c><c>   3</c></rc>
    <rc><c>Br</c><c>   3</c></rc>
   </set>
  </array>
  <array name="atomtypes" >
   <dimension dim="1">type</dimension>
   <field type="int">atomspertype</field>
   <field type="string">element</field>
   <field>mass</field>
   <field>valence</field>
   <field type="string">pseudopotential</field>
   <set>
    <rc><c>   8</c><c>Cs</c><c>    132.90000000</c><c>      9.00000000</c><c>  PAW_PBE Cs_sv 08Apr2002               </c></rc>
    <rc><c>   8</c><c>Pb</c><c>    207.20000000</c><c>     14.00000000</c><c>  PAW_PBE Pb_d 06Sep2000                </c></rc>
    <rc><c>  24</c><c>Br</c><c>     79.90400000</c><c>      7.00000000</c><c>  PAW_PBE Br 06Sep2000                  </c></rc>
   </set>
  </array>
 </atominfo>
 <structure name="initialpos" >
  <crystal>
   <varray name="basis" >
    <v>       8.42001800       0.00000000       8.07798100 </v>
    <v>       0.00000000      11.76380800       0.00000000 </v>
    <v>      -8.42001800       0.00000000       8.07798100 </v>
   </varray>
   <i name="volume">   1600.27186790 </i>
   <varray name="rec_basis" >
    <v>       0.05938230      -0.00000000       0.06189665 </v>
    <v>       0.00000000       0.08500649      -0.00000000 </v>
    <v>      -0.05938230       0.00000000       0.06189665 </v>
   </varray>
  </crystal>
  <varray name="positions" >
   <v>       0.27212500       0.25000000       0.20823600 </v>
   <v>       0.81055934       0.24426255       0.77598116 </v>
   <v>       0.87452867       0.73234645       0.29832725 </v>
   <v>       0.28007793       0.79087773       0.79316940 </v>
   <v>       0.27365212       0.28134461       0.73433154 </v>
   <v>       0.78742489       0.19528617       0.32257867 </v>
   <v>       0.71949888       0.78529340       0.82615781 </v>
   <v>       0.32428813       0.77630387       0.33199026 </v>
   <v>       0.00564433       0.97228897       0.02694476 </v>
   <v>       0.53004095       0.01778669       0.50543392 </v>
   <v>       0.49586490       0.06954332       0.01624324 </v>
   <v>       0.04617809       0.95885955       0.53234366 </v>
   <v>       0.51789688       0.52584535       0.04075817 </v>
   <v>       0.06437789       0.49260599       0.47164309 </v>
   <v>       0.01053658       0.48444924       0.98268512 </v>
   <v>       0.55283213       0.54537929       0.53789008 </v>
   <v>       0.49901099       0.79564391       0.06704362 </v>
   <v>       0.08012672       0.72175273       0.55756623 </v>
   <v>       0.97979973       0.23749700       0.03105989 </v>
   <v>       0.58036344       0.28664816       0.50785692 </v>
   <v>       0.06979703       0.73892442       0.04444436 </v>
   <v>       0.50435989       0.78780497       0.61610562 </v>
   <v>       0.56598437       0.29136415       0.07842921 </v>
   <v>       0.04705028       0.22382685       0.51300484 </v>
   <v>       0.26129851       0.45443272       0.98976101 </v>
   <v>       0.81111025       0.50870056       0.50651092 </v>
   <v>       0.57968466       0.59222173       0.29156996 </v>
   <v>       0.00935064       0.46707843       0.74975710 </v>
   <v>       0.58058424       0.09088271       0.76760836 </v>
   <v>       0.07969508       0.98268461       0.27007200 </v>
   <v>       0.75385645       0.00555846       0.07655953 </v>
   <v>       0.29358457       0.01950681       0.56841948 </v>
   <v>       0.25150171       0.07318700       0.95717211 </v>
   <v>       0.77941883       0.92057332       0.50537256 </v>
   <v>       0.49552666       0.05074638       0.26876317 </v>
   <v>       0.96131738       0.97867936       0.76720718 </v>
   <v>       0.75833985       0.54653582       0.98484319 </v>
   <v>       0.33074270       0.45107114       0.43437490 </v>
   <v>       0.50584294       0.51888798       0.78252729 </v>
   <v>       0.98564982       0.45752737       0.23208090 </v>
  </varray>
  <varray name="selective"  type="logical" >
   <v type="logical" >  F  F  F </v>
   <v type="logical" >  T  T  T </v>
   <v type="logical" >  T  T  T </v>
   <v type="logical" >  T  T  T </v>
   <v type="logical" >  T  T  T </v>
   <v type="logical" >  T  T  T </v>
   <v type="logical" >  T  T  T </v>
   <v type="logical" >  T  T  T </v>
   <v type="logical" >  T  T  T </v>
   <v type="logical" >  T  T  T </v>
   <v type="logical" >  T  T  T </v>
   <v type="logical" >  T  T  T </v>
   <v type="logical" >  T  T  T </v>
   <v type="logical" >  T  T  T </v>
   <v type="logical" >  T  T  T </v>
   <v type="logical" >  T  T  T </v>
   <v type="logical" >  T  T  T </v>
   <v type="logical" >  T  T  T </v>
   <v type="logical" >  T  T  T </v>
   <v type="logical" >  T  T  T </v>
   <v type="logical" >  T  T  T </v>
   <v type="logical" >  T  T  T </v>
   <v type="logical" >  T  T  T </v>
   <v type="logical" >  T  T  T </v>
   <v type="logical" >  T  T  T </v>
   <v type="logical" >  T  T  T </v>
   <v type="logical" >  T  T  T </v>
   <v type="logical" >  T  T  T </v>
   <v type="logical" >  T  T  T </v>
   <v type="logical" >  T  T  T </v>
   <v type="logical" >  T  T  T </v>
   <v type="logical" >  T  T  T </v>
   <v type="logical" >  T  T  T </v>
   <v type="logical" >  T  T  T </v>
   <v type="logical" >  T  T  T </v>
   <v type="logical" >  T  T  T </v>
   <v type="logical" >  T  T  T </v>
   <v type="logical" >  T  T  T </v>
   <v type="logical" >  T  T  T </v>
   <v type="logical" >  T  T  T </v>
  </varray>
  <nose>
   <v>      -3.00000000       0.00000000       0.00010000       0.00010000 </v>
  </nose>
 </structure>
 <calculation>
  <scstep>
   <time name="dav">   16.85   16.86</time>
   <time name="total">   18.31   18.33</time>
   <energy>
    <i name="alphaZ">    901.86909112 </i>
    <i name="ewald"> -18391.69312977 </i>
    <i name="hartreedc">  -7378.10358027 </i>
    <i name="XCdc">    924.51353886 </i>
    <i name="pawpsdc">  21633.96174531 </i>
    <i name="pawaedc"> -22707.92185401 </i>
    <i name="eentropy">     -0.00171104 </i>
    <i name="bandstr">   -186.08095691 </i>
    <i name="atom">  26580.56019858 </i>
    <i name="e_fr_energy">   1377.10334187 </i>
    <i name="e_wo_entrp">   1377.10505292 </i>
    <i name="e_0_energy">   1377.10419739 </i>
   </energy>
  </scstep>
  <scstep>
   <time name="dav">   18.67   18.68</time>
   <time name="total">   18.67   18.68</time>
   <energy>
    <i name="e_fr_energy">  -1120.17667994 </i>
    <i name="e_wo_entrp">  -1120.17667994 </i>
    <i name="e_0_energy">  -1120.17667994 </i>
   </energy>
  </scstep>
  <scstep>
   <time name="dav">   20.10   20.15</time>
   <time name="total">   20.10   20.15</time>
   <energy>
    <i name="e_fr_energy">  -1494.02810922 </i>
    <i name="e_wo_entrp">  -1494.02810922 </i>
    <i name="e_0_energy">  -1494.02810922 </i>
   </energy>
  </scstep>
  <scstep>
   <time name="dav">   18.34   18.38</time>
   <time name="total">   18.34   18.38</time>
   <energy>
    <i name="e_fr_energy">  -1506.68732612 </i>
    <i name="e_wo_entrp">  -1506.68732612 </i>
    <i name="e_0_energy">  -1506.68732612 </i>
   </energy>
  </scstep>
  <scstep>
   <time name="dav">   19.68   19.71</time>
   <time name="total">   22.46   22.49</time>
   <energy>
    <i name="e_fr_energy">  -1507.29305805 </i>
    <i name="e_wo_entrp">  -1507.29305805 </i>
    <i name="e_0_energy">  -1507.29305805 </i>
   </energy>
  </scstep>
  <scstep>
   <time name="dav">   19.63   19.63</time>
   <time name="total">   23.84   23.88</time>
   <energy>
    <i name="e_fr_energy">  -1426.56560220 </i>
    <i name="e_wo_entrp">  -1426.56560220 </i>
    <i name="e_0_energy">  -1426.56560220 </i>
   </energy>
  </scstep>
  <scstep>
   <time name="dav">   18.37   18.37</time>
   <time name="total">   22.57   22.62</time>
   <energy>
    <i name="e_fr_energy">  -1426.02710073 </i>
    <i name="e_wo_entrp">  -1426.02710073 </i>
    <i name="e_0_energy">  -1426.02710073 </i>
   </energy>
  </scstep>
  <scstep>
   <time name="dav">   17.98   17.98</time>
   <time name="total">   22.18   22.23</time>
   <energy>
    <i name="e_fr_energy">  -1426.20586682 </i>
    <i name="e_wo_entrp">  -1426.20586682 </i>
    <i name="e_0_energy">  -1426.20586682 </i>
   </energy>
  </scstep>
  <scstep>
   <time name="dav">   18.00   18.00</time>
   <time name="total">   22.25   22.25</time>
   <energy>
    <i name="e_fr_energy">  -1426.27106566 </i>
    <i name="e_wo_entrp">  -1426.27106566 </i>
    <i name="e_0_energy">  -1426.27106566 </i>
   </energy>
  </scstep>
  <scstep>
   <time name="dav">   20.44   20.45</time>
   <time name="total">   24.65   24.68</time>
   <energy>
    <i name="e_fr_energy">  -1426.27474450 </i>
    <i name="e_wo_entrp">  -1426.27474450 </i>
    <i name="e_0_energy">  -1426.27474450 </i>
   </energy>
  </scstep>
  <scstep>
   <time name="dav">   18.45   18.45</time>
   <time name="total">   22.67   22.70</time>
   <energy>
    <i name="e_fr_energy">  -1426.27662306 </i>
    <i name="e_wo_entrp">  -1426.27662306 </i>
    <i name="e_0_energy">  -1426.27662306 </i>
   </energy>
  </scstep>
  <scstep>
   <time name="dav">   17.54   17.54</time>
   <time name="total">   21.78   21.79</time>
   <energy>
    <i name="e_fr_energy">  -1426.27943134 </i>
    <i name="e_wo_entrp">  -1426.27943134 </i>
    <i name="e_0_energy">  -1426.27943134 </i>
   </energy>
  </scstep>
  <scstep>
   <time name="dav">   20.39   20.39</time>
   <time name="total">   24.62   24.65</time>
   <energy>
    <i name="e_fr_energy">  -1426.27907927 </i>
    <i name="e_wo_entrp">  -1426.27907927 </i>
    <i name="e_0_energy">  -1426.27907927 </i>
   </energy>
  </scstep>
  <scstep>
   <time name="dav">   18.51   18.51</time>
   <time name="total">   22.75   22.78</time>
   <energy>
    <i name="e_fr_energy">  -1426.27893862 </i>
    <i name="e_wo_entrp">  -1426.27893862 </i>
    <i name="e_0_energy">  -1426.27893862 </i>
   </energy>
  </scstep>
  <scstep>
   <time name="dav">   19.71   19.71</time>
   <time name="total">   23.93   23.98</time>
   <energy>
    <i name="e_fr_energy">  -1426.27887411 </i>
    <i name="e_wo_entrp">  -1426.27887411 </i>
    <i name="e_0_energy">  -1426.27887411 </i>
   </energy>
  </scstep>
  <scstep>
   <time name="dav">   17.68   17.68</time>
   <time name="total">   21.92   21.94</time>
   <energy>
    <i name="e_fr_energy">  -1426.27886076 </i>
    <i name="e_wo_entrp">  -1426.27886076 </i>
    <i name="e_0_energy">  -1426.27886076 </i>
   </energy>
  </scstep>
  <scstep>
   <time name="dav">   16.99   16.99</time>
   <time name="total">   21.24   21.26</time>
   <energy>
    <i name="e_fr_energy">  -1426.27884672 </i>
    <i name="e_wo_entrp">  -1426.27884672 </i>
    <i name="e_0_energy">  -1426.27884672 </i>
   </energy>
  </scstep>
  <scstep>
   <time name="dav">   13.68   13.68</time>
   <time name="total">   17.94   17.94</time>
   <energy>
    <i name="e_fr_energy">  -1426.27884539 </i>
    <i name="e_wo_entrp">  -1426.27884539 </i>
    <i name="e_0_energy">  -1426.27884539 </i>
   </energy>
  </scstep>
  <scstep>
   <time name="dav">   13.25   13.26</time>
   <time name="total">   17.49   17.52</time>
   <energy>
    <i name="e_fr_energy">  -1426.27884370 </i>
    <i name="e_wo_entrp">  -1426.27884370 </i>
    <i name="e_0_energy">  -1426.27884370 </i>
   </energy>
  </scstep>
  <scstep>
   <time name="dav">   13.04   13.05</time>
   <time name="total">   17.27   17.30</time>
   <energy>
    <i name="e_fr_energy">  -1426.27884514 </i>
    <i name="e_wo_entrp">  -1426.27884514 </i>
    <i name="e_0_energy">  -1426.27884514 </i>
   </energy>
  </scstep>
  <scstep>
   <time name="dav">   12.96   12.96</time>
   <time name="total">   14.40   14.44</time>
   <energy>
    <i name="alphaZ">    901.86909112 </i>
    <i name="ewald"> -18391.69312977 </i>
    <i name="hartreedc">  -7409.65655930 </i>
    <i name="XCdc">    963.24456757 </i>
    <i name="pawpsdc">  23196.46809269 </i>
    <i name="pawaedc"> -24269.09552439 </i>
    <i name="eentropy">     -0.00000000 </i>
    <i name="bandstr">  -2997.97558201 </i>
    <i name="atom">  26580.56019858 </i>
    <i name="e_fr_energy">  -1426.27884552 </i>
    <i name="e_wo_entrp">  -1426.27884552 </i>
    <i name="e_0_energy">  -1426.27884552 </i>
   </energy>
  </scstep>
  <structure>
   <crystal>
    <varray name="basis" >
     <v>       8.42001800       0.00000000       8.07798100 </v>
     <v>       0.00000000      11.76380800       0.00000000 </v>
     <v>      -8.42001800       0.00000000       8.07798100 </v>
    </varray>
    <i name="volume">   1600.27186790 </i>
    <varray name="rec_basis" >
     <v>       0.05938230      -0.00000000       0.06189665 </v>
     <v>       0.00000000       0.08500649      -0.00000000 </v>
     <v>      -0.05938230       0.00000000       0.06189665 </v>
    </varray>
   </crystal>
   <varray name="positions" >
    <v>       0.27212500       0.25000000       0.20823600 </v>
    <v>       0.81055934       0.24426255       0.77598116 </v>
    <v>       0.87452867       0.73234645       0.29832725 </v>
    <v>       0.28007793       0.79087773       0.79316940 </v>
    <v>       0.27365212       0.28134461       0.73433154 </v>
    <v>       0.78742489       0.19528617       0.32257867 </v>
    <v>       0.71949888       0.78529340       0.82615781 </v>
    <v>       0.32428813       0.77630387       0.33199026 </v>
    <v>       0.00564433       0.97228897       0.02694476 </v>
    <v>       0.53004095       0.01778669       0.50543392 </v>
    <v>       0.49586490       0.06954332       0.01624324 </v>
    <v>       0.04617809       0.95885955       0.53234366 </v>
    <v>       0.51789688       0.52584535       0.04075817 </v>
    <v>       0.06437789       0.49260599       0.47164309 </v>
    <v>       0.01053658       0.48444924       0.98268512 </v>
    <v>       0.55283213       0.54537929       0.53789008 </v>
    <v>       0.49901099       0.79564391       0.06704362 </v>
    <v>       0.08012672       0.72175273       0.55756623 </v>
    <v>       0.97979973       0.23749700       0.03105989 </v>
    <v>       0.58036344       0.28664816       0.50785692 </v>
    <v>       0.06979703       0.73892442       0.04444436 </v>
    <v>       0.50435989       0.78780497       0.61610562 </v>
    <v>       0.56598437       0.29136415       0.07842921 </v>
    <v>       0.04705028       0.22382685       0.51300484 </v>
    <v>       0.26129851       0.45443272       0.98976101 </v>
    <v>       0.81111025       0.50870056       0.50651092 </v>
    <v>       0.57968466       0.59222173       0.29156996 </v>
    <v>       0.00935064       0.46707843       0.74975710 </v>
    <v>       0.58058424       0.09088271       0.76760836 </v>
    <v>       0.07969508       0.98268461       0.27007200 </v>
    <v>       0.75385645       0.00555846       0.07655953 </v>
    <v>       0.29358457       0.01950681       0.56841948 </v>
    <v>       0.25150171       0.07318700       0.95717211 </v>
    <v>       0.77941883       0.92057332       0.50537256 </v>
    <v>       0.49552666       0.05074638       0.26876317 </v>
    <v>       0.96131738       0.97867936       0.76720718 </v>
    <v>       0.75833985       0.54653582       0.98484319 </v>
    <v>       0.33074270       0.45107114       0.43437490 </v>
    <v>       0.50584294       0.51888798       0.78252729 </v>
    <v>       0.98564982       0.45752737       0.23208090 </v>
   </varray>
  </structure>
  <varray name="forces" >
   <v>      -0.44739575       0.08513271      -0.05486334 </v>
   <v>       0.25318782       0.36875334      -0.03946516 </v>
   <v>      -0.05259784      -0.04372282      -0.53665277 </v>
   <v>      -0.40221268      -0.07298006       0.25652775 </v>
   <v>       0.18558914       0.10981117       0.02057139 </v>
   <v>       0.31686833       0.19434084      -0.01535960 </v>
   <v>       0.07267253       0.28917507       0.06297989 </v>
   <v>       0.21386210      -0.08176343      -0.14666799 </v>
   <v>      -0.05461080       0.71528869      -0.17750286 </v>
   <v>      -0.28158620       0.46603723       1.15595661 </v>
   <v>       0.76253305      -0.94138708       0.08431669 </v>
   <v>      -0.31479193       0.99975722      -0.42868651 </v>
   <v>      -0.02410306       0.65541678       0.01552418 </v>
   <v>      -0.35755969      -1.11174470      -0.22103686 </v>
   <v>      -0.28070823      -0.00420377       0.44268576 </v>
   <v>       0.54640904      -0.68552262      -0.17294835 </v>
   <v>       0.18398626       0.04178161      -0.53010171 </v>
   <v>       0.20848968       0.01303809       0.14252249 </v>
   <v>       0.12044165      -0.06761601       0.02111190 </v>
   <v>      -0.17390702      -0.31382340       0.09804419 </v>
   <v>       0.09467595      -0.19210967       0.00402134 </v>
   <v>       0.33895593      -0.05524811      -0.40643321 </v>
   <v>       0.01304002       0.04303780       0.17659573 </v>
   <v>      -0.07368284       0.20482000      -0.10257319 </v>
   <v>       0.06601437       0.11963344       0.13826031 </v>
   <v>       0.15085161       0.07242358       0.14559442 </v>
   <v>       0.03124379       0.06357645      -0.07925734 </v>
   <v>       0.80133149       0.02995082      -0.33070769 </v>
   <v>      -0.61914695      -0.51123917      -0.37659574 </v>
   <v>      -0.14389272      -0.04815599       0.19598593 </v>
   <v>       0.34428042      -0.28822295       0.15061161 </v>
   <v>      -0.17317549      -0.09643512      -0.18496659 </v>
   <v>      -0.07925337      -0.22045656      -0.10132554 </v>
   <v>       0.15391955       0.24732454      -0.00596587 </v>
   <v>      -0.05177968      -0.16511867      -0.25953279 </v>
   <v>       0.12371814      -0.13504958       0.24813093 </v>
   <v>      -0.11756913      -0.12844301       0.19016702 </v>
   <v>      -0.54240311       0.40746783      -0.22970248 </v>
   <v>      -0.26686581      -0.07949856      -0.01880802 </v>
   <v>      -0.52482856       0.11597408       0.86954549 </v>
  </varray>
  <varray name="stress" >
   <v>      -0.74572507       0.11996204      -2.70367137 </v>
   <v>       0.11991237       3.35267452      -0.22387256 </v>
   <v>      -2.70353722      -0.22413665       6.57821140 </v>
  </varray>
  <energy>
   <i name="e_fr_energy">  -1426.27884552 </i>
   <i name="e_wo_entrp">  -1426.27884552 </i>
   <i name="e_0_energy">     -0.00000000 </i>
  </energy>
  <time name="totalsc">  495.91  496.52</time>
  <eigenvalues>
   <array>
    <dimension dim="1">band</dimension>
    <dimension dim="2">kpoint</dimension>
    <dimension dim="3">spin</dimension>
    <field>eigene</field>
    <field>occ</field>
    <set>
     <set comment="spin 1">
      <set comment="kpoint 1">
       <r>  -21.2487    1.0000 </r>
       <r>  -21.0682    1.0000 </r>
       <r>  -20.8287    1.0000 </r>
       <r>  -20.7337    1.0000 </r>
       <r>  -20.7238    1.0000 </r>
       <r>  -20.7145    1.0000 </r>
       <r>  -20.5881    1.0000 </r>
       <r>  -20.4318    1.0000 </r>
       <r>  -16.7728    1.0000 </r>
       <r>  -16.7081    1.0000 </r>
       <r>  -16.6733    1.0000 </r>
       <r>  -16.6413    1.0000 </r>
       <r>  -16.6334    1.0000 </r>
       <r>  -16.6278    1.0000 </r>
       <r>  -16.6219    1.0000 </r>
       <r>  -16.6189    1.0000 </r>
       <r>  -16.5942    1.0000 </r>
       <r>  -16.5883    1.0000 </r>
       <r>  -16.5831    1.0000 </r>
       <r>  -16.5473    1.0000 </r>
       <r>  -16.5333    1.0000 </r>
       <r>  -16.5246    1.0000 </r>
       <r>  -16.5077    1.0000 </r>
       <r>  -16.4999    1.0000 </r>
       <r>  -16.4955    1.0000 </r>
       <r>  -16.4856    1.0000 </r>
       <r>  -16.4617    1.0000 </r>
       <r>  -16.4176    1.0000 </r>
       <r>  -16.4019    1.0000 </r>
       <r>  -16.3904    1.0000 </r>
       <r>  -16.3860    1.0000 </r>
       <r>  -16.3735    1.0000 </r>
       <r>  -16.3635    1.0000 </r>
       <r>  -16.3359    1.0000 </r>
       <r>  -16.3249    1.0000 </r>
       <r>  -16.3121    1.0000 </r>
       <r>  -16.2810    1.0000 </r>
       <r>  -16.2602    1.0000 </r>
       <r>  -16.2286    1.0000 </r>
       <r>  -16.2280    1.0000 </r>
       <r>  -16.2133    1.0000 </r>
       <r>  -16.2091    1.0000 </r>
       <r>  -16.2083    1.0000 </r>
       <r>  -16.1744    1.0000 </r>
       <r>  -16.1035    1.0000 </r>
       <r>  -16.0130    1.0000 </r>
       <r>  -15.9895    1.0000 </r>
       <r>  -15.9685    1.0000 </r>
       <r>  -14.8027    1.0000 </r>
       <r>  -14.5479    1.0000 </r>
       <r>  -14.4054    1.0000 </r>
       <r>  -14.2736    1.0000 </r>
       <r>  -14.2524    1.0000 </r>
       <r>  -14.1894    1.0000 </r>
       <r>  -14.1439    1.0000 </r>
       <r>  -14.0888    1.0000 </r>
       <r>  -14.0529    1.0000 </r>
       <r>  -13.9736    1.0000 </r>
       <r>  -13.9250    1.0000 </r>
       <r>  -13.8574    1.0000 </r>
       <r>  -13.8180    1.0000 </r>
       <r>  -13.7838    1.0000 </r>
       <r>  -13.7406    1.0000 </r>
       <r>  -13.6757    1.0000 </r>
       <r>  -13.6394    1.0000 </r>
       <r>  -13.6043    1.0000 </r>
       <r>  -13.5765    1.0000 </r>
       <r>  -13.5537    1.0000 </r>
       <r>  -13.4554    1.0000 </r>
       <r>  -13.3920    1.0000 </r>
       <r>  -13.2536    1.0000 </r>
       <r>  -13.1985    1.0000 </r>
       <r>   -8.2554    1.0000 </r>
       <r>   -7.9000    1.0000 </r>
       <r>   -7.7698    1.0000 </r>
       <r>   -7.6717    1.0000 </r>
       <r>   -7.6275    1.0000 </r>
       <r>   -7.6052    1.0000 </r>
       <r>   -7.5641    1.0000 </r>
       <r>   -7.4761    1.0000 </r>
       <r>   -7.4718    1.0000 </r>
       <r>   -7.4611    1.0000 </r>
       <r>   -7.3497    1.0000 </r>
       <r>   -7.2788    1.0000 </r>
       <r>   -7.2266    1.0000 </r>
       <r>   -7.2198    1.0000 </r>
       <r>   -7.2041    1.0000 </r>
       <r>   -7.1837    1.0000 </r>
       <r>   -7.1716    1.0000 </r>
       <r>   -7.1565    1.0000 </r>
       <r>   -7.1408    1.0000 </r>
       <r>   -7.1202    1.0000 </r>
       <r>   -7.1185    1.0000 </r>
       <r>   -7.1026    1.0000 </r>
       <r>   -7.0940    1.0000 </r>
       <r>   -7.0717    1.0000 </r>
       <r>   -7.0376    1.0000 </r>
       <r>   -7.0115    1.0000 </r>
       <r>   -6.9891    1.0000 </r>
       <r>   -6.9521    1.0000 </r>
       <r>   -6.8950    1.0000 </r>
       <r>   -6.8533    1.0000 </r>
       <r>   -6.8387    1.0000 </r>
       <r>   -6.5839    1.0000 </r>
       <r>   -3.5280    1.0000 </r>
       <r>   -3.3841    1.0000 </r>
       <r>   -3.3063    1.0000 </r>
       <r>   -3.1881    1.0000 </r>
       <r>   -3.1433    1.0000 </r>
       <r>   -3.0808    1.0000 </r>
       <r>   -3.0334    1.0000 </r>
       <r>   -2.9911    1.0000 </r>
       <r>   -2.9430    1.0000 </r>
       <r>   -2.8570    1.0000 </r>
       <r>   -2.7517    1.0000 </r>
       <r>   -2.7010    1.0000 </r>
       <r>   -2.4354    1.0000 </r>
       <r>   -2.3250    1.0000 </r>
       <r>   -2.2592    1.0000 </r>
       <r>   -2.1263    1.0000 </r>
       <r>   -2.0651    1.0000 </r>
       <r>   -1.9860    1.0000 </r>
       <r>   -1.9731    1.0000 </r>
       <r>   -1.9469    1.0000 </r>
       <r>   -1.8984    1.0000 </r>
       <r>   -1.8604    1.0000 </r>
       <r>   -1.8171    1.0000 </r>
       <r>   -1.7788    1.0000 </r>
       <r>   -1.7361    1.0000 </r>
       <r>   -1.7034    1.0000 </r>
       <r>   -1.6386    1.0000 </r>
       <r>   -1.6273    1.0000 </r>
       <r>   -1.6000    1.0000 </r>
       <r>   -1.5857    1.0000 </r>
       <r>   -1.5601    1.0000 </r>
       <r>   -1.5288    1.0000 </r>
       <r>   -1.4985    1.0000 </r>
       <r>   -1.4622    1.0000 </r>
       <r>   -1.4425    1.0000 </r>
       <r>   -1.4344    1.0000 </r>
       <r>   -1.3948    1.0000 </r>
       <r>   -1.3576    1.0000 </r>
       <r>   -1.2976    1.0000 </r>
       <r>   -1.2877    1.0000 </r>
       <r>   -1.2818    1.0000 </r>
       <r>   -1.2459    1.0000 </r>
       <r>   -1.2087    1.0000 </r>
       <r>   -1.1824    1.0000 </r>
       <r>   -1.1709    1.0000 </r>
       <r>   -1.1372    1.0000 </r>
       <r>   -1.1176    1.0000 </r>
       <r>   -1.0734    1.0000 </r>
       <r>   -1.0636    1.0000 </r>
       <r>   -1.0358    1.0000 </r>
       <r>   -1.0113    1.0000 </r>
       <r>   -0.9574    1.0000 </r>
       <r>   -0.9290    1.0000 </r>
       <r>   -0.9057    1.0000 </r>
       <r>   -0.9050    1.0000 </r>
       <r>   -0.8576    1.0000 </r>
       <r>   -0.8006    1.0000 </r>
       <r>   -0.7902    1.0000 </r>
       <r>   -0.7657    1.0000 </r>
       <r>   -0.7445    1.0000 </r>
       <r>   -0.6777    1.0000 </r>
       <r>   -0.5817    1.0000 </r>
       <r>   -0.5447    1.0000 </r>
       <r>   -0.4488    1.0000 </r>
       <r>   -0.4257    1.0000 </r>
       <r>   -0.4038    1.0000 </r>
       <r>   -0.3744    1.0000 </r>
       <r>   -0.2970    1.0000 </r>
       <r>   -0.2455    1.0000 </r>
       <r>   -0.1027    1.0000 </r>
       <r>   -0.0333    1.0000 </r>
       <r>    0.2728    1.0000 </r>
       <r>    2.6049    0.0000 </r>
       <r>    2.7906    0.0000 </r>
       <r>    2.8204    0.0000 </r>
       <r>    3.0907    0.0000 </r>
       <r>    3.1279    0.0000 </r>
       <r>    3.1742    0.0000 </r>
       <r>    3.2135    0.0000 </r>
       <r>    3.2845    0.0000 </r>
       <r>    3.3833    0.0000 </r>
       <r>    3.4344    0.0000 </r>
       <r>    3.6195    0.0000 </r>
       <r>    3.6398    0.0000 </r>
       <r>    4.6716    0.0000 </r>
       <r>    4.7794    0.0000 </r>
       <r>    4.8962    0.0000 </r>
       <r>    5.0738    0.0000 </r>
       <r>    5.1519    0.0000 </r>
       <r>    5.1682    0.0000 </r>
       <r>    5.4054    0.0000 </r>
       <r>    5.5202    0.0000 </r>
       <r>    5.6061    0.0000 </r>
       <r>    5.6314    0.0000 </r>
       <r>    5.8422    0.0000 </r>
       <r>    5.9948    0.0000 </r>
       <r>    6.0437    0.0000 </r>
       <r>    6.1409    0.0000 </r>
       <r>    6.1965    0.0000 </r>
       <r>    6.2207    0.0000 </r>
       <r>    6.2567    0.0000 </r>
       <r>    6.3205    0.0000 </r>
       <r>    6.4012    0.0000 </r>
       <r>    6.4867    0.0000 </r>
       <r>    6.5764    0.0000 </r>
       <r>    6.5874    0.0000 </r>
       <r>    6.6654    0.0000 </r>
       <r>    6.7236    0.0000 </r>
       <r>    6.8236    0.0000 </r>
       <r>    6.8522    0.0000 </r>
       <r>    6.8906    0.0000 </r>
       <r>    6.9814    0.0000 </r>
      </set>
      <set comment="kpoint 2">
       <r>  -21.2487    1.0000 </r>
       <r>  -21.0682    1.0000 </r>
       <r>  -20.8287    1.0000 </r>
       <r>  -20.7337    1.0000 </r>
       <r>  -20.7238    1.0000 </r>
       <r>  -20.7145    1.0000 </r>
       <r>  -20.5881    1.0000 </r>
       <r>  -20.4318    1.0000 </r>
       <r>  -16.7724    1.0000 </r>
       <r>  -16.7044    1.0000 </r>
       <r>  -16.6728    1.0000 </r>
       <r>  -16.6440    1.0000 </r>
       <r>  -16.6333    1.0000 </r>
       <r>  -16.6282    1.0000 </r>
       <r>  -16.6218    1.0000 </r>
       <r>  -16.6191    1.0000 </r>
       <r>  -16.5942    1.0000 </r>
       <r>  -16.5885    1.0000 </r>
       <r>  -16.5846    1.0000 </r>
       <r>  -16.5473    1.0000 </r>
       <r>  -16.5333    1.0000 </r>
       <r>  -16.5246    1.0000 </r>
       <r>  -16.5047    1.0000 </r>
       <r>  -16.4995    1.0000 </r>
       <r>  -16.4951    1.0000 </r>
       <r>  -16.4803    1.0000 </r>
       <r>  -16.4711    1.0000 </r>
       <r>  -16.4175    1.0000 </r>
       <r>  -16.4019    1.0000 </r>
       <r>  -16.3902    1.0000 </r>
       <r>  -16.3857    1.0000 </r>
       <r>  -16.3735    1.0000 </r>
       <r>  -16.3635    1.0000 </r>
       <r>  -16.3360    1.0000 </r>
       <r>  -16.3230    1.0000 </r>
       <r>  -16.3124    1.0000 </r>
       <r>  -16.2800    1.0000 </r>
       <r>  -16.2600    1.0000 </r>
       <r>  -16.2288    1.0000 </r>
       <r>  -16.2282    1.0000 </r>
       <r>  -16.2132    1.0000 </r>
       <r>  -16.2099    1.0000 </r>
       <r>  -16.2084    1.0000 </r>
       <r>  -16.1750    1.0000 </r>
       <r>  -16.1051    1.0000 </r>
       <r>  -16.0130    1.0000 </r>
       <r>  -15.9895    1.0000 </r>
       <r>  -15.9686    1.0000 </r>
       <r>  -14.8019    1.0000 </r>
       <r>  -14.5491    1.0000 </r>
       <r>  -14.4069    1.0000 </r>
       <r>  -14.2735    1.0000 </r>
       <r>  -14.2590    1.0000 </r>
       <r>  -14.1904    1.0000 </r>
       <r>  -14.1445    1.0000 </r>
       <r>  -14.0788    1.0000 </r>
       <r>  -14.0543    1.0000 </r>
       <r>  -13.9711    1.0000 </r>
       <r>  -13.9217    1.0000 </r>
       <r>  -13.8969    1.0000 </r>
       <r>  -13.8285    1.0000 </r>
       <r>  -13.7429    1.0000 </r>
       <r>  -13.6966    1.0000 </r>
       <r>  -13.6804    1.0000 </r>
       <r>  -13.6687    1.0000 </r>
       <r>  -13.6107    1.0000 </r>
       <r>  -13.5660    1.0000 </r>
       <r>  -13.5430    1.0000 </r>
       <r>  -13.4606    1.0000 </r>
       <r>  -13.3995    1.0000 </r>
       <r>  -13.2588    1.0000 </r>
       <r>  -13.1991    1.0000 </r>
       <r>   -8.1287    1.0000 </r>
       <r>   -8.0153    1.0000 </r>
       <r>   -7.7225    1.0000 </r>
       <r>   -7.6292    1.0000 </r>
       <r>   -7.6146    1.0000 </r>
       <r>   -7.5693    1.0000 </r>
       <r>   -7.5301    1.0000 </r>
       <r>   -7.4978    1.0000 </r>
       <r>   -7.4759    1.0000 </r>
       <r>   -7.4416    1.0000 </r>
       <r>   -7.4237    1.0000 </r>
       <r>   -7.3707    1.0000 </r>
       <r>   -7.2596    1.0000 </r>
       <r>   -7.2153    1.0000 </r>
       <r>   -7.2104    1.0000 </r>
       <r>   -7.1887    1.0000 </r>
       <r>   -7.1715    1.0000 </r>
       <r>   -7.1655    1.0000 </r>
       <r>   -7.1382    1.0000 </r>
       <r>   -7.1221    1.0000 </r>
       <r>   -7.1169    1.0000 </r>
       <r>   -7.1046    1.0000 </r>
       <r>   -7.0942    1.0000 </r>
       <r>   -7.0841    1.0000 </r>
       <r>   -7.0166    1.0000 </r>
       <r>   -6.9930    1.0000 </r>
       <r>   -6.9542    1.0000 </r>
       <r>   -6.9265    1.0000 </r>
       <r>   -6.8893    1.0000 </r>
       <r>   -6.8464    1.0000 </r>
       <r>   -6.8317    1.0000 </r>
       <r>   -6.8031    1.0000 </r>
       <r>   -3.5170    1.0000 </r>
       <r>   -3.3713    1.0000 </r>
       <r>   -3.3055    1.0000 </r>
       <r>   -3.1180    1.0000 </r>
       <r>   -3.0795    1.0000 </r>
       <r>   -3.0552    1.0000 </r>
       <r>   -2.9946    1.0000 </r>
       <r>   -2.8100    1.0000 </r>
       <r>   -2.6935    1.0000 </r>
       <r>   -2.5512    1.0000 </r>
       <r>   -2.4527    1.0000 </r>
       <r>   -2.4276    1.0000 </r>
       <r>   -2.3516    1.0000 </r>
       <r>   -2.3132    1.0000 </r>
       <r>   -2.2794    1.0000 </r>
       <r>   -2.2484    1.0000 </r>
       <r>   -2.1457    1.0000 </r>
       <r>   -2.1127    1.0000 </r>
       <r>   -2.0102    1.0000 </r>
       <r>   -1.9854    1.0000 </r>
       <r>   -1.9439    1.0000 </r>
       <r>   -1.9239    1.0000 </r>
       <r>   -1.8876    1.0000 </r>
       <r>   -1.8695    1.0000 </r>
       <r>   -1.8302    1.0000 </r>
       <r>   -1.7787    1.0000 </r>
       <r>   -1.7321    1.0000 </r>
       <r>   -1.7056    1.0000 </r>
       <r>   -1.6457    1.0000 </r>
       <r>   -1.6237    1.0000 </r>
       <r>   -1.5865    1.0000 </r>
       <r>   -1.5611    1.0000 </r>
       <r>   -1.5536    1.0000 </r>
       <r>   -1.5146    1.0000 </r>
       <r>   -1.4907    1.0000 </r>
       <r>   -1.4549    1.0000 </r>
       <r>   -1.4358    1.0000 </r>
       <r>   -1.3883    1.0000 </r>
       <r>   -1.3470    1.0000 </r>
       <r>   -1.3270    1.0000 </r>
       <r>   -1.2907    1.0000 </r>
       <r>   -1.2703    1.0000 </r>
       <r>   -1.2416    1.0000 </r>
       <r>   -1.1795    1.0000 </r>
       <r>   -1.1715    1.0000 </r>
       <r>   -1.1272    1.0000 </r>
       <r>   -1.1094    1.0000 </r>
       <r>   -1.0999    1.0000 </r>
       <r>   -1.0569    1.0000 </r>
       <r>   -1.0405    1.0000 </r>
       <r>   -1.0119    1.0000 </r>
       <r>   -1.0048    1.0000 </r>
       <r>   -0.9845    1.0000 </r>
       <r>   -0.9331    1.0000 </r>
       <r>   -0.8870    1.0000 </r>
       <r>   -0.8488    1.0000 </r>
       <r>   -0.7975    1.0000 </r>
       <r>   -0.7930    1.0000 </r>
       <r>   -0.7786    1.0000 </r>
       <r>   -0.7227    1.0000 </r>
       <r>   -0.6880    1.0000 </r>
       <r>   -0.6530    1.0000 </r>
       <r>   -0.5485    1.0000 </r>
       <r>   -0.5015    1.0000 </r>
       <r>   -0.4543    1.0000 </r>
       <r>   -0.4083    1.0000 </r>
       <r>   -0.3874    1.0000 </r>
       <r>   -0.3526    1.0000 </r>
       <r>   -0.2375    1.0000 </r>
       <r>   -0.2112    1.0000 </r>
       <r>   -0.0034    1.0000 </r>
       <r>    0.0400    1.0000 </r>
       <r>    2.7626    0.0000 </r>
       <r>    2.9288    0.0000 </r>
       <r>    2.9693    0.0000 </r>
       <r>    3.1330    0.0000 </r>
       <r>    3.2515    0.0000 </r>
       <r>    3.3222    0.0000 </r>
       <r>    3.3985    0.0000 </r>
       <r>    3.5025    0.0000 </r>
       <r>    3.7780    0.0000 </r>
       <r>    3.9029    0.0000 </r>
       <r>    3.9737    0.0000 </r>
       <r>    4.2237    0.0000 </r>
       <r>    4.3251    0.0000 </r>
       <r>    4.4081    0.0000 </r>
       <r>    4.4955    0.0000 </r>
       <r>    4.9109    0.0000 </r>
       <r>    4.9374    0.0000 </r>
       <r>    5.0915    0.0000 </r>
       <r>    5.3110    0.0000 </r>
       <r>    5.3913    0.0000 </r>
       <r>    5.4570    0.0000 </r>
       <r>    5.6028    0.0000 </r>
       <r>    5.7297    0.0000 </r>
       <r>    5.7786    0.0000 </r>
       <r>    6.0506    0.0000 </r>
       <r>    6.1267    0.0000 </r>
       <r>    6.1622    0.0000 </r>
       <r>    6.2271    0.0000 </r>
       <r>    6.2779    0.0000 </r>
       <r>    6.3224    0.0000 </r>
       <r>    6.4050    0.0000 </r>
       <r>    6.4752    0.0000 </r>
       <r>    6.5306    0.0000 </r>
       <r>    6.5983    0.0000 </r>
       <r>    6.6434    0.0000 </r>
       <r>    6.7087    0.0000 </r>
       <r>    6.7434    0.0000 </r>
       <r>    6.7668    0.0000 </r>
       <r>    6.8165    0.0000 </r>
       <r>    6.9224    0.0000 </r>
      </set>
      <set comment="kpoint 3">
       <r>  -21.2487    1.0000 </r>
       <r>  -21.0681    1.0000 </r>
       <r>  -20.8286    1.0000 </r>
       <r>  -20.7337    1.0000 </r>
       <r>  -20.7237    1.0000 </r>
       <r>  -20.7145    1.0000 </r>
       <r>  -20.5881    1.0000 </r>
       <r>  -20.4318    1.0000 </r>
       <r>  -16.7675    1.0000 </r>
       <r>  -16.7081    1.0000 </r>
       <r>  -16.6792    1.0000 </r>
       <r>  -16.6415    1.0000 </r>
       <r>  -16.6328    1.0000 </r>
       <r>  -16.6278    1.0000 </r>
       <r>  -16.6220    1.0000 </r>
       <r>  -16.6186    1.0000 </r>
       <r>  -16.5942    1.0000 </r>
       <r>  -16.5882    1.0000 </r>
       <r>  -16.5825    1.0000 </r>
       <r>  -16.5473    1.0000 </r>
       <r>  -16.5332    1.0000 </r>
       <r>  -16.5246    1.0000 </r>
       <r>  -16.5065    1.0000 </r>
       <r>  -16.4992    1.0000 </r>
       <r>  -16.4954    1.0000 </r>
       <r>  -16.4851    1.0000 </r>
       <r>  -16.4613    1.0000 </r>
       <r>  -16.4176    1.0000 </r>
       <r>  -16.4019    1.0000 </r>
       <r>  -16.3905    1.0000 </r>
       <r>  -16.3867    1.0000 </r>
       <r>  -16.3734    1.0000 </r>
       <r>  -16.3635    1.0000 </r>
       <r>  -16.3364    1.0000 </r>
       <r>  -16.3253    1.0000 </r>
       <r>  -16.3127    1.0000 </r>
       <r>  -16.2812    1.0000 </r>
       <r>  -16.2602    1.0000 </r>
       <r>  -16.2286    1.0000 </r>
       <r>  -16.2280    1.0000 </r>
       <r>  -16.2132    1.0000 </r>
       <r>  -16.2090    1.0000 </r>
       <r>  -16.2083    1.0000 </r>
       <r>  -16.1747    1.0000 </r>
       <r>  -16.1048    1.0000 </r>
       <r>  -16.0129    1.0000 </r>
       <r>  -15.9893    1.0000 </r>
       <r>  -15.9685    1.0000 </r>
       <r>  -14.8025    1.0000 </r>
       <r>  -14.5455    1.0000 </r>
       <r>  -14.4139    1.0000 </r>
       <r>  -14.2613    1.0000 </r>
       <r>  -14.2498    1.0000 </r>
       <r>  -14.2015    1.0000 </r>
       <r>  -14.1433    1.0000 </r>
       <r>  -14.1032    1.0000 </r>
       <r>  -14.0668    1.0000 </r>
       <r>  -13.9520    1.0000 </r>
       <r>  -13.9115    1.0000 </r>
       <r>  -13.8588    1.0000 </r>
       <r>  -13.8168    1.0000 </r>
       <r>  -13.7847    1.0000 </r>
       <r>  -13.7363    1.0000 </r>
       <r>  -13.6760    1.0000 </r>
       <r>  -13.6354    1.0000 </r>
       <r>  -13.6093    1.0000 </r>
       <r>  -13.5626    1.0000 </r>
       <r>  -13.5570    1.0000 </r>
       <r>  -13.4688    1.0000 </r>
       <r>  -13.3877    1.0000 </r>
       <r>  -13.2558    1.0000 </r>
       <r>  -13.2020    1.0000 </r>
       <r>   -8.1389    1.0000 </r>
       <r>   -7.9644    1.0000 </r>
       <r>   -7.7261    1.0000 </r>
       <r>   -7.6495    1.0000 </r>
       <r>   -7.6175    1.0000 </r>
       <r>   -7.5914    1.0000 </r>
       <r>   -7.5204    1.0000 </r>
       <r>   -7.5132    1.0000 </r>
       <r>   -7.4682    1.0000 </r>
       <r>   -7.4673    1.0000 </r>
       <r>   -7.4384    1.0000 </r>
       <r>   -7.2864    1.0000 </r>
       <r>   -7.2738    1.0000 </r>
       <r>   -7.2294    1.0000 </r>
       <r>   -7.2101    1.0000 </r>
       <r>   -7.1847    1.0000 </r>
       <r>   -7.1738    1.0000 </r>
       <r>   -7.1540    1.0000 </r>
       <r>   -7.1398    1.0000 </r>
       <r>   -7.1254    1.0000 </r>
       <r>   -7.1224    1.0000 </r>
       <r>   -7.1101    1.0000 </r>
       <r>   -7.1062    1.0000 </r>
       <r>   -7.0773    1.0000 </r>
       <r>   -7.0329    1.0000 </r>
       <r>   -6.9887    1.0000 </r>
       <r>   -6.9663    1.0000 </r>
       <r>   -6.9468    1.0000 </r>
       <r>   -6.8872    1.0000 </r>
       <r>   -6.8501    1.0000 </r>
       <r>   -6.8406    1.0000 </r>
       <r>   -6.7606    1.0000 </r>
       <r>   -3.4308    1.0000 </r>
       <r>   -3.3392    1.0000 </r>
       <r>   -3.3060    1.0000 </r>
       <r>   -3.1867    1.0000 </r>
       <r>   -3.0563    1.0000 </r>
       <r>   -3.0324    1.0000 </r>
       <r>   -2.9072    1.0000 </r>
       <r>   -2.7882    1.0000 </r>
       <r>   -2.7485    1.0000 </r>
       <r>   -2.5848    1.0000 </r>
       <r>   -2.5489    1.0000 </r>
       <r>   -2.4852    1.0000 </r>
       <r>   -2.3801    1.0000 </r>
       <r>   -2.3598    1.0000 </r>
       <r>   -2.3187    1.0000 </r>
       <r>   -2.2283    1.0000 </r>
       <r>   -2.1653    1.0000 </r>
       <r>   -2.0955    1.0000 </r>
       <r>   -2.0559    1.0000 </r>
       <r>   -1.9941    1.0000 </r>
       <r>   -1.9336    1.0000 </r>
       <r>   -1.9139    1.0000 </r>
       <r>   -1.8565    1.0000 </r>
       <r>   -1.8415    1.0000 </r>
       <r>   -1.8133    1.0000 </r>
       <r>   -1.7943    1.0000 </r>
       <r>   -1.7308    1.0000 </r>
       <r>   -1.7019    1.0000 </r>
       <r>   -1.6381    1.0000 </r>
       <r>   -1.6318    1.0000 </r>
       <r>   -1.5964    1.0000 </r>
       <r>   -1.5840    1.0000 </r>
       <r>   -1.5227    1.0000 </r>
       <r>   -1.4946    1.0000 </r>
       <r>   -1.4447    1.0000 </r>
       <r>   -1.4333    1.0000 </r>
       <r>   -1.4062    1.0000 </r>
       <r>   -1.3875    1.0000 </r>
       <r>   -1.3495    1.0000 </r>
       <r>   -1.3049    1.0000 </r>
       <r>   -1.2617    1.0000 </r>
       <r>   -1.2311    1.0000 </r>
       <r>   -1.2158    1.0000 </r>
       <r>   -1.1861    1.0000 </r>
       <r>   -1.1739    1.0000 </r>
       <r>   -1.1624    1.0000 </r>
       <r>   -1.1488    1.0000 </r>
       <r>   -1.0685    1.0000 </r>
       <r>   -1.0626    1.0000 </r>
       <r>   -1.0398    1.0000 </r>
       <r>   -1.0227    1.0000 </r>
       <r>   -0.9830    1.0000 </r>
       <r>   -0.9615    1.0000 </r>
       <r>   -0.9151    1.0000 </r>
       <r>   -0.9081    1.0000 </r>
       <r>   -0.8311    1.0000 </r>
       <r>   -0.8032    1.0000 </r>
       <r>   -0.7945    1.0000 </r>
       <r>   -0.7713    1.0000 </r>
       <r>   -0.7342    1.0000 </r>
       <r>   -0.6999    1.0000 </r>
       <r>   -0.6460    1.0000 </r>
       <r>   -0.6006    1.0000 </r>
       <r>   -0.5148    1.0000 </r>
       <r>   -0.4696    1.0000 </r>
       <r>   -0.4110    1.0000 </r>
       <r>   -0.4017    1.0000 </r>
       <r>   -0.3355    1.0000 </r>
       <r>   -0.2544    1.0000 </r>
       <r>   -0.1684    1.0000 </r>
       <r>   -0.0264    1.0000 </r>
       <r>    0.0914    1.0000 </r>
       <r>    2.6023    0.0000 </r>
       <r>    2.8273    0.0000 </r>
       <r>    2.9448    0.0000 </r>
       <r>    3.0571    0.0000 </r>
       <r>    3.1082    0.0000 </r>
       <r>    3.1474    0.0000 </r>
       <r>    3.2753    0.0000 </r>
       <r>    3.4908    0.0000 </r>
       <r>    3.8687    0.0000 </r>
       <r>    4.0109    0.0000 </r>
       <r>    4.2172    0.0000 </r>
       <r>    4.4211    0.0000 </r>
       <r>    4.5454    0.0000 </r>
       <r>    4.5882    0.0000 </r>
       <r>    4.6672    0.0000 </r>
       <r>    4.7210    0.0000 </r>
       <r>    4.9241    0.0000 </r>
       <r>    5.1365    0.0000 </r>
       <r>    5.2680    0.0000 </r>
       <r>    5.3977    0.0000 </r>
       <r>    5.4820    0.0000 </r>
       <r>    5.5783    0.0000 </r>
       <r>    5.8167    0.0000 </r>
       <r>    5.8507    0.0000 </r>
       <r>    5.9185    0.0000 </r>
       <r>    6.0006    0.0000 </r>
       <r>    6.1889    0.0000 </r>
       <r>    6.2313    0.0000 </r>
       <r>    6.2517    0.0000 </r>
       <r>    6.2942    0.0000 </r>
       <r>    6.3917    0.0000 </r>
       <r>    6.4716    0.0000 </r>
       <r>    6.5406    0.0000 </r>
       <r>    6.6609    0.0000 </r>
       <r>    6.6923    0.0000 </r>
       <r>    6.7268    0.0000 </r>
       <r>    6.7568    0.0000 </r>
       <r>    6.7944    0.0000 </r>
       <r>    6.8383    0.0000 </r>
       <r>    6.8940    0.0000 </r>
      </set>
      <set comment="kpoint 4">
       <r>  -21.2487    1.0000 </r>
       <r>  -21.0682    1.0000 </r>
       <r>  -20.8287    1.0000 </r>
       <r>  -20.7337    1.0000 </r>
       <r>  -20.7238    1.0000 </r>
       <r>  -20.7145    1.0000 </r>
       <r>  -20.5881    1.0000 </r>
       <r>  -20.4318    1.0000 </r>
       <r>  -16.7671    1.0000 </r>
       <r>  -16.7044    1.0000 </r>
       <r>  -16.6789    1.0000 </r>
       <r>  -16.6442    1.0000 </r>
       <r>  -16.6327    1.0000 </r>
       <r>  -16.6282    1.0000 </r>
       <r>  -16.6220    1.0000 </r>
       <r>  -16.6188    1.0000 </r>
       <r>  -16.5943    1.0000 </r>
       <r>  -16.5884    1.0000 </r>
       <r>  -16.5841    1.0000 </r>
       <r>  -16.5473    1.0000 </r>
       <r>  -16.5332    1.0000 </r>
       <r>  -16.5245    1.0000 </r>
       <r>  -16.5030    1.0000 </r>
       <r>  -16.4993    1.0000 </r>
       <r>  -16.4951    1.0000 </r>
       <r>  -16.4802    1.0000 </r>
       <r>  -16.4704    1.0000 </r>
       <r>  -16.4176    1.0000 </r>
       <r>  -16.4019    1.0000 </r>
       <r>  -16.3905    1.0000 </r>
       <r>  -16.3864    1.0000 </r>
       <r>  -16.3735    1.0000 </r>
       <r>  -16.3635    1.0000 </r>
       <r>  -16.3365    1.0000 </r>
       <r>  -16.3236    1.0000 </r>
       <r>  -16.3130    1.0000 </r>
       <r>  -16.2802    1.0000 </r>
       <r>  -16.2601    1.0000 </r>
       <r>  -16.2287    1.0000 </r>
       <r>  -16.2282    1.0000 </r>
       <r>  -16.2132    1.0000 </r>
       <r>  -16.2100    1.0000 </r>
       <r>  -16.2083    1.0000 </r>
       <r>  -16.1753    1.0000 </r>
       <r>  -16.1065    1.0000 </r>
       <r>  -16.0129    1.0000 </r>
       <r>  -15.9894    1.0000 </r>
       <r>  -15.9685    1.0000 </r>
       <r>  -14.8019    1.0000 </r>
       <r>  -14.5459    1.0000 </r>
       <r>  -14.4172    1.0000 </r>
       <r>  -14.2721    1.0000 </r>
       <r>  -14.2406    1.0000 </r>
       <r>  -14.1968    1.0000 </r>
       <r>  -14.1455    1.0000 </r>
       <r>  -14.1196    1.0000 </r>
       <r>  -14.0492    1.0000 </r>
       <r>  -13.9508    1.0000 </r>
       <r>  -13.9058    1.0000 </r>
       <r>  -13.8972    1.0000 </r>
       <r>  -13.8278    1.0000 </r>
       <r>  -13.7410    1.0000 </r>
       <r>  -13.7022    1.0000 </r>
       <r>  -13.6800    1.0000 </r>
       <r>  -13.6590    1.0000 </r>
       <r>  -13.6141    1.0000 </r>
       <r>  -13.5583    1.0000 </r>
       <r>  -13.5430    1.0000 </r>
       <r>  -13.4749    1.0000 </r>
       <r>  -13.3955    1.0000 </r>
       <r>  -13.2603    1.0000 </r>
       <r>  -13.2022    1.0000 </r>
       <r>   -8.0259    1.0000 </r>
       <r>   -7.9398    1.0000 </r>
       <r>   -7.7605    1.0000 </r>
       <r>   -7.6724    1.0000 </r>
       <r>   -7.6458    1.0000 </r>
       <r>   -7.6011    1.0000 </r>
       <r>   -7.5511    1.0000 </r>
       <r>   -7.4807    1.0000 </r>
       <r>   -7.4740    1.0000 </r>
       <r>   -7.4627    1.0000 </r>
       <r>   -7.3722    1.0000 </r>
       <r>   -7.3015    1.0000 </r>
       <r>   -7.2862    1.0000 </r>
       <r>   -7.2092    1.0000 </r>
       <r>   -7.2000    1.0000 </r>
       <r>   -7.1904    1.0000 </r>
       <r>   -7.1725    1.0000 </r>
       <r>   -7.1550    1.0000 </r>
       <r>   -7.1414    1.0000 </r>
       <r>   -7.1287    1.0000 </r>
       <r>   -7.1229    1.0000 </r>
       <r>   -7.1109    1.0000 </r>
       <r>   -7.1082    1.0000 </r>
       <r>   -7.0829    1.0000 </r>
       <r>   -7.0502    1.0000 </r>
       <r>   -7.0101    1.0000 </r>
       <r>   -6.9889    1.0000 </r>
       <r>   -6.9595    1.0000 </r>
       <r>   -6.9358    1.0000 </r>
       <r>   -6.8783    1.0000 </r>
       <r>   -6.8509    1.0000 </r>
       <r>   -6.8357    1.0000 </r>
       <r>   -3.3859    1.0000 </r>
       <r>   -3.3554    1.0000 </r>
       <r>   -3.2864    1.0000 </r>
       <r>   -3.0501    1.0000 </r>
       <r>   -2.8659    1.0000 </r>
       <r>   -2.8376    1.0000 </r>
       <r>   -2.7170    1.0000 </r>
       <r>   -2.6048    1.0000 </r>
       <r>   -2.5901    1.0000 </r>
       <r>   -2.5444    1.0000 </r>
       <r>   -2.5055    1.0000 </r>
       <r>   -2.4224    1.0000 </r>
       <r>   -2.3692    1.0000 </r>
       <r>   -2.3218    1.0000 </r>
       <r>   -2.3092    1.0000 </r>
       <r>   -2.2163    1.0000 </r>
       <r>   -2.1669    1.0000 </r>
       <r>   -2.1209    1.0000 </r>
       <r>   -2.0822    1.0000 </r>
       <r>   -2.0386    1.0000 </r>
       <r>   -1.9957    1.0000 </r>
       <r>   -1.9667    1.0000 </r>
       <r>   -1.8988    1.0000 </r>
       <r>   -1.8811    1.0000 </r>
       <r>   -1.8339    1.0000 </r>
       <r>   -1.7977    1.0000 </r>
       <r>   -1.7767    1.0000 </r>
       <r>   -1.7470    1.0000 </r>
       <r>   -1.6738    1.0000 </r>
       <r>   -1.6682    1.0000 </r>
       <r>   -1.6441    1.0000 </r>
       <r>   -1.6117    1.0000 </r>
       <r>   -1.5899    1.0000 </r>
       <r>   -1.5615    1.0000 </r>
       <r>   -1.5261    1.0000 </r>
       <r>   -1.4927    1.0000 </r>
       <r>   -1.4620    1.0000 </r>
       <r>   -1.4527    1.0000 </r>
       <r>   -1.3968    1.0000 </r>
       <r>   -1.3775    1.0000 </r>
       <r>   -1.3300    1.0000 </r>
       <r>   -1.2903    1.0000 </r>
       <r>   -1.2676    1.0000 </r>
       <r>   -1.2199    1.0000 </r>
       <r>   -1.1600    1.0000 </r>
       <r>   -1.1371    1.0000 </r>
       <r>   -1.0962    1.0000 </r>
       <r>   -1.0829    1.0000 </r>
       <r>   -1.0728    1.0000 </r>
       <r>   -1.0619    1.0000 </r>
       <r>   -1.0349    1.0000 </r>
       <r>   -1.0041    1.0000 </r>
       <r>   -0.9745    1.0000 </r>
       <r>   -0.9505    1.0000 </r>
       <r>   -0.8801    1.0000 </r>
       <r>   -0.8591    1.0000 </r>
       <r>   -0.8362    1.0000 </r>
       <r>   -0.7881    1.0000 </r>
       <r>   -0.7625    1.0000 </r>
       <r>   -0.7296    1.0000 </r>
       <r>   -0.7108    1.0000 </r>
       <r>   -0.6817    1.0000 </r>
       <r>   -0.6403    1.0000 </r>
       <r>   -0.5572    1.0000 </r>
       <r>   -0.5042    1.0000 </r>
       <r>   -0.4937    1.0000 </r>
       <r>   -0.4000    1.0000 </r>
       <r>   -0.3458    1.0000 </r>
       <r>   -0.3198    1.0000 </r>
       <r>   -0.2496    1.0000 </r>
       <r>   -0.0982    1.0000 </r>
       <r>   -0.0153    1.0000 </r>
       <r>    2.8293    0.0000 </r>
       <r>    2.9078    0.0000 </r>
       <r>    3.0062    0.0000 </r>
       <r>    3.2193    0.0000 </r>
       <r>    3.6039    0.0000 </r>
       <r>    3.7116    0.0000 </r>
       <r>    3.8218    0.0000 </r>
       <r>    3.8847    0.0000 </r>
       <r>    3.9294    0.0000 </r>
       <r>    4.1421    0.0000 </r>
       <r>    4.2789    0.0000 </r>
       <r>    4.2961    0.0000 </r>
       <r>    4.4042    0.0000 </r>
       <r>    4.4432    0.0000 </r>
       <r>    4.5164    0.0000 </r>
       <r>    4.6388    0.0000 </r>
       <r>    4.6790    0.0000 </r>
       <r>    4.8093    0.0000 </r>
       <r>    4.9280    0.0000 </r>
       <r>    5.0512    0.0000 </r>
       <r>    5.4514    0.0000 </r>
       <r>    5.4766    0.0000 </r>
       <r>    5.8268    0.0000 </r>
       <r>    5.8732    0.0000 </r>
       <r>    5.9837    0.0000 </r>
       <r>    6.0646    0.0000 </r>
       <r>    6.1297    0.0000 </r>
       <r>    6.1840    0.0000 </r>
       <r>    6.2371    0.0000 </r>
       <r>    6.3355    0.0000 </r>
       <r>    6.3477    0.0000 </r>
       <r>    6.4605    0.0000 </r>
       <r>    6.4988    0.0000 </r>
       <r>    6.5132    0.0000 </r>
       <r>    6.5604    0.0000 </r>
       <r>    6.6285    0.0000 </r>
       <r>    6.6973    0.0000 </r>
       <r>    6.7161    0.0000 </r>
       <r>    6.7567    0.0000 </r>
       <r>    6.8661    0.0000 </r>
      </set>
      <set comment="kpoint 5">
       <r>  -21.2487    1.0000 </r>
       <r>  -21.0682    1.0000 </r>
       <r>  -20.8287    1.0000 </r>
       <r>  -20.7336    1.0000 </r>
       <r>  -20.7239    1.0000 </r>
       <r>  -20.7145    1.0000 </r>
       <r>  -20.5881    1.0000 </r>
       <r>  -20.4318    1.0000 </r>
       <r>  -16.7725    1.0000 </r>
       <r>  -16.7060    1.0000 </r>
       <r>  -16.6725    1.0000 </r>
       <r>  -16.6390    1.0000 </r>
       <r>  -16.6334    1.0000 </r>
       <r>  -16.6275    1.0000 </r>
       <r>  -16.6216    1.0000 </r>
       <r>  -16.6186    1.0000 </r>
       <r>  -16.5943    1.0000 </r>
       <r>  -16.5881    1.0000 </r>
       <r>  -16.5826    1.0000 </r>
       <r>  -16.5475    1.0000 </r>
       <r>  -16.5338    1.0000 </r>
       <r>  -16.5255    1.0000 </r>
       <r>  -16.5088    1.0000 </r>
       <r>  -16.5019    1.0000 </r>
       <r>  -16.4956    1.0000 </r>
       <r>  -16.4872    1.0000 </r>
       <r>  -16.4624    1.0000 </r>
       <r>  -16.4176    1.0000 </r>
       <r>  -16.4018    1.0000 </r>
       <r>  -16.3905    1.0000 </r>
       <r>  -16.3860    1.0000 </r>
       <r>  -16.3734    1.0000 </r>
       <r>  -16.3635    1.0000 </r>
       <r>  -16.3291    1.0000 </r>
       <r>  -16.3169    1.0000 </r>
       <r>  -16.3093    1.0000 </r>
       <r>  -16.2993    1.0000 </r>
       <r>  -16.2603    1.0000 </r>
       <r>  -16.2284    1.0000 </r>
       <r>  -16.2278    1.0000 </r>
       <r>  -16.2133    1.0000 </r>
       <r>  -16.2092    1.0000 </r>
       <r>  -16.2083    1.0000 </r>
       <r>  -16.1755    1.0000 </r>
       <r>  -16.1035    1.0000 </r>
       <r>  -16.0131    1.0000 </r>
       <r>  -15.9894    1.0000 </r>
       <r>  -15.9685    1.0000 </r>
       <r>  -14.8032    1.0000 </r>
       <r>  -14.5414    1.0000 </r>
       <r>  -14.4244    1.0000 </r>
       <r>  -14.2763    1.0000 </r>
       <r>  -14.2347    1.0000 </r>
       <r>  -14.2080    1.0000 </r>
       <r>  -14.1246    1.0000 </r>
       <r>  -14.0852    1.0000 </r>
       <r>  -14.0479    1.0000 </r>
       <r>  -13.9909    1.0000 </r>
       <r>  -13.9364    1.0000 </r>
       <r>  -13.8562    1.0000 </r>
       <r>  -13.8252    1.0000 </r>
       <r>  -13.7734    1.0000 </r>
       <r>  -13.7375    1.0000 </r>
       <r>  -13.6695    1.0000 </r>
       <r>  -13.6192    1.0000 </r>
       <r>  -13.6031    1.0000 </r>
       <r>  -13.5663    1.0000 </r>
       <r>  -13.5467    1.0000 </r>
       <r>  -13.4594    1.0000 </r>
       <r>  -13.4150    1.0000 </r>
       <r>  -13.2560    1.0000 </r>
       <r>  -13.2012    1.0000 </r>
       <r>   -8.1404    1.0000 </r>
       <r>   -7.9106    1.0000 </r>
       <r>   -7.7808    1.0000 </r>
       <r>   -7.6364    1.0000 </r>
       <r>   -7.6066    1.0000 </r>
       <r>   -7.5984    1.0000 </r>
       <r>   -7.5190    1.0000 </r>
       <r>   -7.4779    1.0000 </r>
       <r>   -7.4666    1.0000 </r>
       <r>   -7.4519    1.0000 </r>
       <r>   -7.4463    1.0000 </r>
       <r>   -7.3377    1.0000 </r>
       <r>   -7.2643    1.0000 </r>
       <r>   -7.2251    1.0000 </r>
       <r>   -7.2113    1.0000 </r>
       <r>   -7.1700    1.0000 </r>
       <r>   -7.1618    1.0000 </r>
       <r>   -7.1558    1.0000 </r>
       <r>   -7.1389    1.0000 </r>
       <r>   -7.1301    1.0000 </r>
       <r>   -7.1242    1.0000 </r>
       <r>   -7.1184    1.0000 </r>
       <r>   -7.1074    1.0000 </r>
       <r>   -7.0868    1.0000 </r>
       <r>   -7.0268    1.0000 </r>
       <r>   -6.9925    1.0000 </r>
       <r>   -6.9891    1.0000 </r>
       <r>   -6.9446    1.0000 </r>
       <r>   -6.8979    1.0000 </r>
       <r>   -6.8606    1.0000 </r>
       <r>   -6.8411    1.0000 </r>
       <r>   -6.7870    1.0000 </r>
       <r>   -3.5100    1.0000 </r>
       <r>   -3.3096    1.0000 </r>
       <r>   -3.1800    1.0000 </r>
       <r>   -3.1460    1.0000 </r>
       <r>   -3.0438    1.0000 </r>
       <r>   -2.9802    1.0000 </r>
       <r>   -2.8721    1.0000 </r>
       <r>   -2.8584    1.0000 </r>
       <r>   -2.6722    1.0000 </r>
       <r>   -2.5886    1.0000 </r>
       <r>   -2.5405    1.0000 </r>
       <r>   -2.4023    1.0000 </r>
       <r>   -2.3288    1.0000 </r>
       <r>   -2.3147    1.0000 </r>
       <r>   -2.2345    1.0000 </r>
       <r>   -2.1969    1.0000 </r>
       <r>   -2.1878    1.0000 </r>
       <r>   -2.1024    1.0000 </r>
       <r>   -2.0658    1.0000 </r>
       <r>   -2.0290    1.0000 </r>
       <r>   -1.9912    1.0000 </r>
       <r>   -1.9519    1.0000 </r>
       <r>   -1.9346    1.0000 </r>
       <r>   -1.8924    1.0000 </r>
       <r>   -1.8295    1.0000 </r>
       <r>   -1.8007    1.0000 </r>
       <r>   -1.7163    1.0000 </r>
       <r>   -1.6913    1.0000 </r>
       <r>   -1.6456    1.0000 </r>
       <r>   -1.6258    1.0000 </r>
       <r>   -1.6006    1.0000 </r>
       <r>   -1.5686    1.0000 </r>
       <r>   -1.5367    1.0000 </r>
       <r>   -1.5005    1.0000 </r>
       <r>   -1.4819    1.0000 </r>
       <r>   -1.4482    1.0000 </r>
       <r>   -1.4219    1.0000 </r>
       <r>   -1.3659    1.0000 </r>
       <r>   -1.3478    1.0000 </r>
       <r>   -1.2992    1.0000 </r>
       <r>   -1.2851    1.0000 </r>
       <r>   -1.2525    1.0000 </r>
       <r>   -1.2352    1.0000 </r>
       <r>   -1.2119    1.0000 </r>
       <r>   -1.1868    1.0000 </r>
       <r>   -1.1681    1.0000 </r>
       <r>   -1.1505    1.0000 </r>
       <r>   -1.1236    1.0000 </r>
       <r>   -1.0863    1.0000 </r>
       <r>   -1.0565    1.0000 </r>
       <r>   -1.0174    1.0000 </r>
       <r>   -0.9757    1.0000 </r>
       <r>   -0.9518    1.0000 </r>
       <r>   -0.9220    1.0000 </r>
       <r>   -0.9050    1.0000 </r>
       <r>   -0.8481    1.0000 </r>
       <r>   -0.8324    1.0000 </r>
       <r>   -0.7932    1.0000 </r>
       <r>   -0.7415    1.0000 </r>
       <r>   -0.7168    1.0000 </r>
       <r>   -0.6831    1.0000 </r>
       <r>   -0.6288    1.0000 </r>
       <r>   -0.5997    1.0000 </r>
       <r>   -0.5550    1.0000 </r>
       <r>   -0.5334    1.0000 </r>
       <r>   -0.4049    1.0000 </r>
       <r>   -0.3903    1.0000 </r>
       <r>   -0.3368    1.0000 </r>
       <r>   -0.2410    1.0000 </r>
       <r>   -0.2191    1.0000 </r>
       <r>   -0.1166    1.0000 </r>
       <r>    0.1087    1.0000 </r>
       <r>    2.7172    0.0000 </r>
       <r>    2.8588    0.0000 </r>
       <r>    2.9616    0.0000 </r>
       <r>    3.1329    0.0000 </r>
       <r>    3.1919    0.0000 </r>
       <r>    3.2509    0.0000 </r>
       <r>    3.3787    0.0000 </r>
       <r>    3.5039    0.0000 </r>
       <r>    3.8196    0.0000 </r>
       <r>    3.9699    0.0000 </r>
       <r>    4.1769    0.0000 </r>
       <r>    4.3230    0.0000 </r>
       <r>    4.4857    0.0000 </r>
       <r>    4.5246    0.0000 </r>
       <r>    4.8026    0.0000 </r>
       <r>    4.9491    0.0000 </r>
       <r>    5.0104    0.0000 </r>
       <r>    5.2081    0.0000 </r>
       <r>    5.2544    0.0000 </r>
       <r>    5.4212    0.0000 </r>
       <r>    5.5383    0.0000 </r>
       <r>    5.5788    0.0000 </r>
       <r>    5.6540    0.0000 </r>
       <r>    5.7310    0.0000 </r>
       <r>    5.8123    0.0000 </r>
       <r>    6.0591    0.0000 </r>
       <r>    6.0958    0.0000 </r>
       <r>    6.1218    0.0000 </r>
       <r>    6.1970    0.0000 </r>
       <r>    6.3034    0.0000 </r>
       <r>    6.3616    0.0000 </r>
       <r>    6.4563    0.0000 </r>
       <r>    6.5236    0.0000 </r>
       <r>    6.5994    0.0000 </r>
       <r>    6.6276    0.0000 </r>
       <r>    6.7011    0.0000 </r>
       <r>    6.7126    0.0000 </r>
       <r>    6.7310    0.0000 </r>
       <r>    6.8302    0.0000 </r>
       <r>    6.8934    0.0000 </r>
      </set>
[...]
        <r>  0.0072  0.0005  0.0081 </r>
        <r>  0.0013  0.0016  0.0061 </r>
        <r>  0.0000  0.0010  0.0117 </r>
        <r>  0.0033  0.0021  0.0202 </r>
        <r>  0.0003  0.0006  0.0058 </r>
        <r>  0.0005  0.0012  0.0041 </r>
        <r>  0.0007  0.0001  0.0097 </r>
        <r>  0.0001  0.0032  0.0002 </r>
        <r>  0.0000  0.0034  0.0007 </r>
        <r>  0.0000  0.0074  0.0003 </r>
        <r>  0.0001  0.0051  0.0005 </r>
        <r>  0.0000  0.0005  0.0000 </r>
        <r>  0.0002  0.0025  0.0002 </r>
        <r>  0.0001  0.0087  0.0001 </r>
        <r>  0.0000  0.0052  0.0001 </r>
        <r>  0.0004  0.0015  0.0006 </r>
        <r>  0.0000  0.0022  0.0003 </r>
        <r>  0.0015  0.0004  0.0007 </r>
        <r>  0.0004  0.0008  0.0010 </r>
        <r>  0.0000  0.0017  0.0007 </r>
        <r>  0.0002  0.0006  0.0004 </r>
        <r>  0.0002  0.0007  0.0007 </r>
        <r>  0.0008  0.0054  0.0013 </r>
        <r>  0.0004  0.0004  0.0009 </r>
        <r>  0.0004  0.0013  0.0002 </r>
        <r>  0.0002  0.0018  0.0004 </r>
        <r>  0.0005  0.0019  0.0015 </r>
        <r>  0.0004  0.0016  0.0007 </r>
        <r>  0.0000  0.0042  0.0003 </r>
        <r>  0.0010  0.0028  0.0006 </r>
        <r>  0.0000  0.0045  0.0018 </r>
        <r>  0.0007  0.0045  0.0011 </r>
        <r>  0.0012  0.0016  0.0012 </r>
        <r>  0.0012  0.0014  0.0020 </r>
        <r>  0.0040  0.0016  0.0042 </r>
        <r>  0.0010  0.0016  0.0006 </r>
        <r>  0.0003  0.0011  0.0004 </r>
        <r>  0.0001  0.0038  0.0013 </r>
        <r>  0.0011  0.0035  0.0002 </r>
       </set>
       <set comment="band 209">
        <r>  0.0008  0.0003  0.0192 </r>
        <r>  0.0005  0.0008  0.0124 </r>
        <r>  0.0022  0.0008  0.0082 </r>
        <r>  0.0023  0.0002  0.0116 </r>
        <r>  0.0000  0.0011  0.0054 </r>
        <r>  0.0000  0.0002  0.0138 </r>
        <r>  0.0001  0.0008  0.0011 </r>
        <r>  0.0006  0.0002  0.0271 </r>
        <r>  0.0002  0.0040  0.0003 </r>
        <r>  0.0000  0.0121  0.0001 </r>
        <r>  0.0000  0.0045  0.0004 </r>
        <r>  0.0001  0.0006  0.0008 </r>
        <r>  0.0002  0.0075  0.0003 </r>
        <r>  0.0000  0.0035  0.0006 </r>
        <r>  0.0002  0.0198  0.0005 </r>
        <r>  0.0002  0.0023  0.0008 </r>
        <r>  0.0005  0.0012  0.0011 </r>
        <r>  0.0005  0.0012  0.0011 </r>
        <r>  0.0005  0.0029  0.0015 </r>
        <r>  0.0003  0.0010  0.0008 </r>
        <r>  0.0001  0.0012  0.0009 </r>
        <r>  0.0000  0.0016  0.0009 </r>
        <r>  0.0006  0.0039  0.0007 </r>
        <r>  0.0003  0.0012  0.0020 </r>
        <r>  0.0000  0.0003  0.0014 </r>
        <r>  0.0002  0.0011  0.0002 </r>
        <r>  0.0002  0.0012  0.0006 </r>
        <r>  0.0001  0.0051  0.0021 </r>
        <r>  0.0002  0.0021  0.0007 </r>
        <r>  0.0017  0.0014  0.0015 </r>
        <r>  0.0020  0.0015  0.0012 </r>
        <r>  0.0012  0.0007  0.0032 </r>
        <r>  0.0000  0.0015  0.0016 </r>
        <r>  0.0007  0.0008  0.0015 </r>
        <r>  0.0000  0.0037  0.0002 </r>
        <r>  0.0000  0.0026  0.0005 </r>
        <r>  0.0002  0.0007  0.0005 </r>
        <r>  0.0000  0.0011  0.0015 </r>
        <r>  0.0006  0.0009  0.0003 </r>
        <r>  0.0000  0.0045  0.0024 </r>
       </set>
       <set comment="band 210">
        <r>  0.0000  0.0008  0.0019 </r>
        <r>  0.0002  0.0022  0.0044 </r>
        <r>  0.0002  0.0011  0.0043 </r>
        <r>  0.0008  0.0000  0.0102 </r>
        <r>  0.0017  0.0001  0.0101 </r>
        <r>  0.0131  0.0002  0.0094 </r>
        <r>  0.0002  0.0006  0.0162 </r>
        <r>  0.0001  0.0000  0.0219 </r>
        <r>  0.0000  0.0014  0.0003 </r>
        <r>  0.0002  0.0011  0.0006 </r>
        <r>  0.0001  0.0075  0.0008 </r>
        <r>  0.0001  0.0090  0.0003 </r>
        <r>  0.0000  0.0084  0.0003 </r>
        <r>  0.0003  0.0021  0.0002 </r>
        <r>  0.0001  0.0115  0.0000 </r>
        <r>  0.0005  0.0022  0.0000 </r>
        <r>  0.0001  0.0049  0.0014 </r>
        <r>  0.0002  0.0037  0.0008 </r>
        <r>  0.0000  0.0023  0.0006 </r>
        <r>  0.0016  0.0055  0.0005 </r>
        <r>  0.0000  0.0008  0.0009 </r>
        <r>  0.0007  0.0011  0.0005 </r>
        <r>  0.0020  0.0027  0.0033 </r>
        <r>  0.0016  0.0012  0.0016 </r>
        <r>  0.0000  0.0023  0.0004 </r>
        <r>  0.0016  0.0007  0.0009 </r>
        <r>  0.0015  0.0014  0.0009 </r>
        <r>  0.0000  0.0036  0.0010 </r>
        <r>  0.0000  0.0018  0.0016 </r>
        <r>  0.0014  0.0011  0.0017 </r>
        <r>  0.0024  0.0008  0.0014 </r>
        <r>  0.0000  0.0009  0.0006 </r>
        <r>  0.0001  0.0005  0.0005 </r>
        <r>  0.0009  0.0057  0.0012 </r>
        <r>  0.0001  0.0008  0.0002 </r>
        <r>  0.0000  0.0015  0.0004 </r>
        <r>  0.0000  0.0009  0.0003 </r>
        <r>  0.0001  0.0009  0.0005 </r>
        <r>  0.0003  0.0001  0.0019 </r>
        <r>  0.0000  0.0036  0.0013 </r>
       </set>
       <set comment="band 211">
        <r>  0.0093  0.0010  0.0078 </r>
        <r>  0.0014  0.0000  0.0062 </r>
        <r>  0.0044  0.0019  0.0065 </r>
        <r>  0.0015  0.0003  0.0246 </r>
        <r>  0.0002  0.0014  0.0021 </r>
        <r>  0.0005  0.0016  0.0018 </r>
        <r>  0.0002  0.0007  0.0061 </r>
        <r>  0.0001  0.0017  0.0062 </r>
        <r>  0.0003  0.0046  0.0001 </r>
        <r>  0.0001  0.0092  0.0002 </r>
        <r>  0.0000  0.0133  0.0000 </r>
        <r>  0.0000  0.0023  0.0003 </r>
        <r>  0.0005  0.0098  0.0002 </r>
        <r>  0.0000  0.0159  0.0002 </r>
        <r>  0.0000  0.0080  0.0002 </r>
        <r>  0.0000  0.0031  0.0002 </r>
        <r>  0.0008  0.0018  0.0003 </r>
        <r>  0.0000  0.0010  0.0008 </r>
        <r>  0.0030  0.0034  0.0008 </r>
        <r>  0.0007  0.0020  0.0009 </r>
        <r>  0.0000  0.0011  0.0008 </r>
        <r>  0.0002  0.0006  0.0010 </r>
        <r>  0.0010  0.0011  0.0004 </r>
        <r>  0.0003  0.0021  0.0003 </r>
        <r>  0.0001  0.0022  0.0010 </r>
        <r>  0.0005  0.0047  0.0015 </r>
        <r>  0.0016  0.0008  0.0005 </r>
        <r>  0.0003  0.0030  0.0006 </r>
        <r>  0.0000  0.0007  0.0002 </r>
        <r>  0.0039  0.0023  0.0029 </r>
        <r>  0.0009  0.0064  0.0012 </r>
        <r>  0.0002  0.0019  0.0014 </r>
        <r>  0.0021  0.0038  0.0022 </r>
        <r>  0.0000  0.0024  0.0003 </r>
        <r>  0.0005  0.0033  0.0003 </r>
        <r>  0.0007  0.0027  0.0002 </r>
        <r>  0.0004  0.0070  0.0006 </r>
        <r>  0.0013  0.0054  0.0013 </r>
        <r>  0.0000  0.0015  0.0014 </r>
        <r>  0.0001  0.0016  0.0007 </r>
       </set>
       <set comment="band 212">
        <r>  0.0001  0.0004  0.0072 </r>
        <r>  0.0001  0.0023  0.0054 </r>
        <r>  0.0002  0.0004  0.0101 </r>
        <r>  0.0003  0.0012  0.0129 </r>
        <r>  0.0098  0.0009  0.0144 </r>
        <r>  0.0015  0.0004  0.0131 </r>
        <r>  0.0000  0.0009  0.0137 </r>
        <r>  0.0000  0.0004  0.0093 </r>
        <r>  0.0000  0.0051  0.0002 </r>
        <r>  0.0001  0.0013  0.0007 </r>
        <r>  0.0007  0.0020  0.0003 </r>
        <r>  0.0001  0.0011  0.0002 </r>
        <r>  0.0000  0.0055  0.0002 </r>
        <r>  0.0001  0.0084  0.0005 </r>
        <r>  0.0000  0.0093  0.0006 </r>
        <r>  0.0000  0.0099  0.0002 </r>
        <r>  0.0000  0.0008  0.0013 </r>
        <r>  0.0001  0.0004  0.0006 </r>
        <r>  0.0005  0.0016  0.0015 </r>
        <r>  0.0028  0.0009  0.0019 </r>
        <r>  0.0005  0.0022  0.0016 </r>
        <r>  0.0002  0.0015  0.0017 </r>
        <r>  0.0012  0.0005  0.0002 </r>
        <r>  0.0001  0.0026  0.0006 </r>
        <r>  0.0006  0.0013  0.0007 </r>
        <r>  0.0011  0.0023  0.0011 </r>
        <r>  0.0008  0.0038  0.0006 </r>
        <r>  0.0000  0.0034  0.0019 </r>
        <r>  0.0017  0.0013  0.0024 </r>
        <r>  0.0004  0.0009  0.0009 </r>
        <r>  0.0000  0.0024  0.0003 </r>
        <r>  0.0000  0.0017  0.0008 </r>
        <r>  0.0000  0.0049  0.0006 </r>
        <r>  0.0003  0.0022  0.0012 </r>
        <r>  0.0001  0.0004  0.0011 </r>
        <r>  0.0002  0.0003  0.0004 </r>
        <r>  0.0000  0.0039  0.0003 </r>
        <r>  0.0016  0.0022  0.0011 </r>
        <r>  0.0007  0.0037  0.0026 </r>
        <r>  0.0010  0.0029  0.0009 </r>
       </set>
       <set comment="band 213">
        <r>  0.0004  0.0006  0.0137 </r>
        <r>  0.0015  0.0000  0.0093 </r>
        <r>  0.0009  0.0001  0.0163 </r>
        <r>  0.0009  0.0007  0.0111 </r>
        <r>  0.0009  0.0001  0.0117 </r>
        <r>  0.0051  0.0017  0.0104 </r>
        <r>  0.0004  0.0003  0.0080 </r>
        <r>  0.0011  0.0009  0.0228 </r>
        <r>  0.0001  0.0018  0.0004 </r>
        <r>  0.0000  0.0055  0.0005 </r>
        <r>  0.0001  0.0036  0.0001 </r>
        <r>  0.0003  0.0036  0.0002 </r>
        <r>  0.0000  0.0075  0.0002 </r>
        <r>  0.0002  0.0028  0.0004 </r>
        <r>  0.0005  0.0020  0.0001 </r>
        <r>  0.0001  0.0071  0.0006 </r>
        <r>  0.0001  0.0028  0.0002 </r>
        <r>  0.0007  0.0005  0.0008 </r>
        <r>  0.0026  0.0005  0.0016 </r>
        <r>  0.0000  0.0032  0.0011 </r>
        <r>  0.0002  0.0006  0.0023 </r>
        <r>  0.0015  0.0004  0.0031 </r>
        <r>  0.0010  0.0022  0.0008 </r>
        <r>  0.0006  0.0015  0.0018 </r>
        <r>  0.0002  0.0006  0.0013 </r>
        <r>  0.0001  0.0005  0.0004 </r>
        <r>  0.0005  0.0011  0.0014 </r>
        <r>  0.0000  0.0004  0.0011 </r>
        <r>  0.0002  0.0002  0.0003 </r>
        <r>  0.0000  0.0028  0.0019 </r>
        <r>  0.0003  0.0006  0.0005 </r>
        <r>  0.0001  0.0017  0.0015 </r>
        <r>  0.0000  0.0004  0.0013 </r>
        <r>  0.0002  0.0015  0.0011 </r>
        <r>  0.0017  0.0015  0.0027 </r>
        <r>  0.0006  0.0009  0.0003 </r>
        <r>  0.0001  0.0038  0.0003 </r>
        <r>  0.0002  0.0003  0.0005 </r>
        <r>  0.0004  0.0038  0.0005 </r>
        <r>  0.0021  0.0023  0.0017 </r>
       </set>
       <set comment="band 214">
        <r>  0.0000  0.0001  0.0095 </r>
        <r>  0.0001  0.0001  0.0032 </r>
        <r>  0.0008  0.0009  0.0208 </r>
        <r>  0.0001  0.0004  0.0068 </r>
        <r>  0.0002  0.0007  0.0249 </r>
        <r>  0.0015  0.0012  0.0080 </r>
        <r>  0.0000  0.0010  0.0311 </r>
        <r>  0.0001  0.0002  0.0274 </r>
        <r>  0.0001  0.0012  0.0006 </r>
        <r>  0.0000  0.0040  0.0006 </r>
        <r>  0.0002  0.0022  0.0000 </r>
        <r>  0.0001  0.0007  0.0020 </r>
        <r>  0.0000  0.0030  0.0003 </r>
        <r>  0.0002  0.0035  0.0001 </r>
        <r>  0.0000  0.0017  0.0002 </r>
        <r>  0.0000  0.0039  0.0001 </r>
        <r>  0.0002  0.0006  0.0014 </r>
        <r>  0.0000  0.0045  0.0013 </r>
        <r>  0.0002  0.0002  0.0002 </r>
        <r>  0.0002  0.0009  0.0003 </r>
        <r>  0.0000  0.0016  0.0006 </r>
        <r>  0.0008  0.0039  0.0013 </r>
        <r>  0.0001  0.0006  0.0004 </r>
        <r>  0.0002  0.0009  0.0009 </r>
        <r>  0.0000  0.0001  0.0007 </r>
        <r>  0.0000  0.0019  0.0000 </r>
        <r>  0.0000  0.0005  0.0003 </r>
        <r>  0.0000  0.0004  0.0002 </r>
        <r>  0.0002  0.0013  0.0006 </r>
        <r>  0.0002  0.0018  0.0006 </r>
        <r>  0.0000  0.0010  0.0025 </r>
        <r>  0.0000  0.0009  0.0051 </r>
        <r>  0.0004  0.0016  0.0008 </r>
        <r>  0.0020  0.0003  0.0024 </r>
        <r>  0.0021  0.0010  0.0031 </r>
        <r>  0.0000  0.0009  0.0024 </r>
        <r>  0.0007  0.0031  0.0017 </r>
        <r>  0.0003  0.0004  0.0018 </r>
        <r>  0.0019  0.0010  0.0020 </r>
        <r>  0.0001  0.0009  0.0003 </r>
       </set>
       <set comment="band 215">
        <r>  0.0001  0.0005  0.0144 </r>
        <r>  0.0001  0.0005  0.0139 </r>
        <r>  0.0002  0.0002  0.0068 </r>
        <r>  0.0023  0.0006  0.0472 </r>
        <r>  0.0001  0.0005  0.0065 </r>
        <r>  0.0013  0.0002  0.0043 </r>
        <r>  0.0000  0.0004  0.0025 </r>
        <r>  0.0005  0.0012  0.0246 </r>
        <r>  0.0003  0.0034  0.0003 </r>
        <r>  0.0013  0.0073  0.0006 </r>
        <r>  0.0002  0.0054  0.0009 </r>
        <r>  0.0003  0.0119  0.0013 </r>
        <r>  0.0001  0.0041  0.0007 </r>
        <r>  0.0001  0.0104  0.0005 </r>
        <r>  0.0000  0.0020  0.0004 </r>
        <r>  0.0000  0.0053  0.0001 </r>
        <r>  0.0001  0.0044  0.0012 </r>
        <r>  0.0001  0.0021  0.0024 </r>
        <r>  0.0000  0.0013  0.0009 </r>
        <r>  0.0003  0.0014  0.0003 </r>
        <r>  0.0011  0.0020  0.0021 </r>
        <r>  0.0006  0.0010  0.0011 </r>
        <r>  0.0001  0.0003  0.0022 </r>
        <r>  0.0011  0.0017  0.0015 </r>
        <r>  0.0001  0.0005  0.0009 </r>
        <r>  0.0000  0.0010  0.0006 </r>
        <r>  0.0000  0.0028  0.0006 </r>
        <r>  0.0001  0.0008  0.0027 </r>
        <r>  0.0001  0.0000  0.0014 </r>
        <r>  0.0000  0.0018  0.0010 </r>
        <r>  0.0000  0.0018  0.0004 </r>
        <r>  0.0002  0.0003  0.0017 </r>
        <r>  0.0001  0.0008  0.0009 </r>
        <r>  0.0001  0.0025  0.0005 </r>
        <r>  0.0018  0.0016  0.0022 </r>
        <r>  0.0004  0.0007  0.0014 </r>
        <r>  0.0004  0.0009  0.0007 </r>
        <r>  0.0000  0.0016  0.0005 </r>
        <r>  0.0003  0.0003  0.0011 </r>
        <r>  0.0003  0.0022  0.0013 </r>
       </set>
       <set comment="band 216">
        <r>  0.0000  0.0004  0.0112 </r>
        <r>  0.0004  0.0011  0.0117 </r>
        <r>  0.0000  0.0008  0.0091 </r>
        <r>  0.0032  0.0013  0.0182 </r>
        <r>  0.0010  0.0001  0.0121 </r>
        <r>  0.0001  0.0002  0.0094 </r>
        <r>  0.0018  0.0003  0.0289 </r>
        <r>  0.0013  0.0010  0.0073 </r>
        <r>  0.0000  0.0057  0.0004 </r>
        <r>  0.0000  0.0013  0.0005 </r>
        <r>  0.0000  0.0111  0.0001 </r>
        <r>  0.0005  0.0031  0.0010 </r>
        <r>  0.0002  0.0043  0.0005 </r>
        <r>  0.0001  0.0042  0.0001 </r>
        <r>  0.0001  0.0042  0.0005 </r>
        <r>  0.0001  0.0105  0.0004 </r>
        <r>  0.0015  0.0038  0.0013 </r>
        <r>  0.0000  0.0017  0.0005 </r>
        <r>  0.0001  0.0009  0.0008 </r>
        <r>  0.0002  0.0024  0.0005 </r>
        <r>  0.0000  0.0008  0.0027 </r>
        <r>  0.0000  0.0022  0.0005 </r>
        <r>  0.0002  0.0017  0.0005 </r>
        <r>  0.0002  0.0013  0.0008 </r>
        <r>  0.0001  0.0019  0.0016 </r>
        <r>  0.0002  0.0007  0.0011 </r>
        <r>  0.0013  0.0019  0.0006 </r>
        <r>  0.0002  0.0010  0.0009 </r>
        <r>  0.0005  0.0014  0.0017 </r>
        <r>  0.0004  0.0023  0.0007 </r>
        <r>  0.0022  0.0049  0.0021 </r>
        <r>  0.0004  0.0014  0.0011 </r>
        <r>  0.0016  0.0018  0.0042 </r>
        <r>  0.0001  0.0005  0.0004 </r>
        <r>  0.0004  0.0005  0.0011 </r>
        <r>  0.0000  0.0014  0.0038 </r>
        <r>  0.0006  0.0012  0.0013 </r>
        <r>  0.0006  0.0026  0.0006 </r>
        <r>  0.0002  0.0033  0.0012 </r>
        <r>  0.0000  0.0001  0.0002 </r>
       </set>
      </set>
     </set>
    </set>
   </array>
  </projected>
 </calculation>
 <structure name="finalpos" >
  <crystal>
   <varray name="basis" >
    <v>       8.42001800       0.00000000       8.07798100 </v>
    <v>       0.00000000      11.76380800       0.00000000 </v>
    <v>      -8.42001800       0.00000000       8.07798100 </v>
   </varray>
   <i name="volume">   1600.27186790 </i>
   <varray name="rec_basis" >
    <v>       0.05938230      -0.00000000       0.06189665 </v>
    <v>       0.00000000       0.08500649      -0.00000000 </v>
    <v>      -0.05938230       0.00000000       0.06189665 </v>
   </varray>
  </crystal>
  <varray name="positions" >
   <v>       0.27212500       0.25000000       0.20823600 </v>
   <v>       0.81055934       0.24426255       0.77598116 </v>
   <v>       0.87452867       0.73234645       0.29832725 </v>
   <v>       0.28007793       0.79087773       0.79316940 </v>
   <v>       0.27365212       0.28134461       0.73433154 </v>
   <v>       0.78742489       0.19528617       0.32257867 </v>
   <v>       0.71949888       0.78529340       0.82615781 </v>
   <v>       0.32428813       0.77630387       0.33199026 </v>
   <v>       0.00564433       0.97228897       0.02694476 </v>
   <v>       0.53004095       0.01778669       0.50543392 </v>
   <v>       0.49586490       0.06954332       0.01624324 </v>
   <v>       0.04617809       0.95885955       0.53234366 </v>
   <v>       0.51789688       0.52584535       0.04075817 </v>
   <v>       0.06437789       0.49260599       0.47164309 </v>
   <v>       0.01053658       0.48444924       0.98268512 </v>
   <v>       0.55283213       0.54537929       0.53789008 </v>
   <v>       0.49901099       0.79564391       0.06704362 </v>
   <v>       0.08012672       0.72175273       0.55756623 </v>
   <v>       0.97979973       0.23749700       0.03105989 </v>
   <v>       0.58036344       0.28664816       0.50785692 </v>
   <v>       0.06979703       0.73892442       0.04444436 </v>
   <v>       0.50435989       0.78780497       0.61610562 </v>
   <v>       0.56598437       0.29136415       0.07842921 </v>
   <v>       0.04705028       0.22382685       0.51300484 </v>
   <v>       0.26129851       0.45443272       0.98976101 </v>
   <v>       0.81111025       0.50870056       0.50651092 </v>
   <v>       0.57968466       0.59222173       0.29156996 </v>
   <v>       0.00935064       0.46707843       0.74975710 </v>
   <v>       0.58058424       0.09088271       0.76760836 </v>
   <v>       0.07969508       0.98268461       0.27007200 </v>
   <v>       0.75385645       0.00555846       0.07655953 </v>
   <v>       0.29358457       0.01950681       0.56841948 </v>
   <v>       0.25150171       0.07318700       0.95717211 </v>
   <v>       0.77941883       0.92057332       0.50537256 </v>
   <v>       0.49552666       0.05074638       0.26876317 </v>
   <v>       0.96131738       0.97867936       0.76720718 </v>
   <v>       0.75833985       0.54653582       0.98484319 </v>
   <v>       0.33074270       0.45107114       0.43437490 </v>
   <v>       0.50584294       0.51888798       0.78252729 </v>
   <v>       0.98564982       0.45752737       0.23208090 </v>
  </varray>
  <varray name="selective"  type="logical" >
   <v type="logical" >  F  F  F </v>
   <v type="logical" >  T  T  T </v>
   <v type="logical" >  T  T  T </v>
   <v type="logical" >  T  T  T </v>
   <v type="logical" >  T  T  T </v>
   <v type="logical" >  T  T  T </v>
   <v type="logical" >  T  T  T </v>
   <v type="logical" >  T  T  T </v>
   <v type="logical" >  T  T  T </v>
   <v type="logical" >  T  T  T </v>
   <v type="logical" >  T  T  T </v>
   <v type="logical" >  T  T  T </v>
   <v type="logical" >  T  T  T </v>
   <v type="logical" >  T  T  T </v>
   <v type="logical" >  T  T  T </v>
   <v type="logical" >  T  T  T </v>
   <v type="logical" >  T  T  T </v>
   <v type="logical" >  T  T  T </v>
   <v type="logical" >  T  T  T </v>
   <v type="logical" >  T  T  T </v>
   <v type="logical" >  T  T  T </v>
   <v type="logical" >  T  T  T </v>
   <v type="logical" >  T  T  T </v>
   <v type="logical" >  T  T  T </v>
   <v type="logical" >  T  T  T </v>
   <v type="logical" >  T  T  T </v>
   <v type="logical" >  T  T  T </v>
   <v type="logical" >  T  T  T </v>
   <v type="logical" >  T  T  T </v>
   <v type="logical" >  T  T  T </v>
   <v type="logical" >  T  T  T </v>
   <v type="logical" >  T  T  T </v>
   <v type="logical" >  T  T  T </v>
   <v type="logical" >  T  T  T </v>
   <v type="logical" >  T  T  T </v>
   <v type="logical" >  T  T  T </v>
   <v type="logical" >  T  T  T </v>
   <v type="logical" >  T  T  T </v>
   <v type="logical" >  T  T  T </v>
   <v type="logical" >  T  T  T </v>
  </varray>
  <nose>
   <v>      -3.00000000       0.00000000       0.00010000       0.00010000 </v>
  </nose>
 </structure>
</modeling>
