CsPbBr3 cubic bulk                      
           1
     8.420018    0.000000    8.077981
     0.000000   11.763808    0.000000
    -8.420018    0.000000    8.077981
   Cs   Pb   Br
   8   8  24
Direct configuration=     1
   0.27212500  0.25000000  0.20823600
   0.81055934  0.24426255  0.77598116
   0.87452867  0.73234645  0.29832725
   0.28007793  0.79087773  0.79316940
   0.27365212  0.28134461  0.73433154
   0.78742489  0.19528617  0.32257867
   0.71949888  0.78529340  0.82615781
   0.32428813  0.77630387  0.33199026
   0.00564433  0.97228897  0.02694476
   0.53004095  0.01778669  0.50543392
   0.49586490  0.06954332  0.01624324
   0.04617809  0.95885955  0.53234366
   0.51789688  0.52584535  0.04075817
   0.06437789  0.49260599  0.47164309
   0.01053658  0.48444924  0.98268512
   0.55283213  0.54537929  0.53789008
   0.49901099  0.79564391  0.06704362
   0.08012672  0.72175273  0.55756623
   0.97979973  0.23749700  0.03105989
   0.58036344  0.28664816  0.50785692
   0.06979703  0.73892442  0.04444436
   0.50435989  0.78780497  0.61610562
   0.56598437  0.29136415  0.07842921
   0.04705028  0.22382685  0.51300484
   0.26129851  0.45443272  0.98976101
   0.81111025  0.50870056  0.50651092
   0.57968466  0.59222173  0.29156996
   0.00935064  0.46707843  0.74975710
   0.58058424  0.09088271  0.76760836
   0.07969508  0.98268461  0.27007200
   0.75385645  0.00555846  0.07655953
   0.29358457  0.01950681  0.56841948
   0.25150171  0.07318700  0.95717211
   0.77941883  0.92057332  0.50537256
   0.49552666  0.05074638  0.26876317
   0.96131738  0.97867936  0.76720718
   0.75833985  0.54653582  0.98484319
   0.33074270  0.45107114  0.43437490
   0.50584294  0.51888798  0.78252729
   0.98564982  0.45752737  0.23208090
