  39  39   1   0
  0.4089970E+02  0.1166870E-08  0.1172985E-08  0.1166870E-08  0.5000000E-15
   1.0000000000000000E-004
  CAR 
 CsPbBr3 cubic bulk                      
      8.05392119    -22.23898082  301      0.43020752      1.00000000
    -22.239  0.0000E+00  0.0000E+00
    -22.138  0.0000E+00  0.0000E+00
    -22.037  0.0000E+00  0.0000E+00
    -21.936  0.0000E+00  0.0000E+00
    -21.835  0.0000E+00  0.0000E+00
    -21.734  0.0000E+00  0.0000E+00
    -21.633  0.0000E+00  0.0000E+00
    -21.532  0.0000E+00  0.0000E+00
    -21.431  0.0000E+00  0.0000E+00
    -21.330  0.0000E+00  0.0000E+00
    -21.229  0.0000E+00  0.0000E+00
    -21.128  0.0000E+00  0.0000E+00
    -21.027  0.0000E+00  0.0000E+00
    -20.926  0.0000E+00  0.0000E+00
    -20.825  0.3356E+02  0.3389E+01
    -20.724  0.9876E+02  0.1397E+02
    -20.623  0.1981E+02  0.1600E+02
    -20.522  0.0000E+00  0.1600E+02
    -20.421  0.0000E+00  0.1600E+02
    -20.320  0.0000E+00  0.1600E+02
    -20.219  0.0000E+00  0.1600E+02
    -20.118  0.0000E+00  0.1600E+02
    -20.018  0.0000E+00  0.1600E+02
    -19.917  0.0000E+00  0.1600E+02
    -19.816  0.0000E+00  0.1600E+02
    -19.715  0.0000E+00  0.1600E+02
    -19.614  0.0000E+00  0.1600E+02
    -19.513  0.0000E+00  0.1600E+02
    -19.412  0.0000E+00  0.1600E+02
    -19.311  0.0000E+00  0.1600E+02
    -19.210  0.0000E+00  0.1600E+02
    -19.109  0.0000E+00  0.1600E+02
    -19.008  0.0000E+00  0.1600E+02
    -18.907  0.0000E+00  0.1600E+02
    -18.806  0.0000E+00  0.1600E+02
    -18.705  0.0000E+00  0.1600E+02
    -18.604  0.0000E+00  0.1600E+02
    -18.503  0.0000E+00  0.1600E+02
    -18.402  0.0000E+00  0.1600E+02
    -18.301  0.0000E+00  0.1600E+02
    -18.200  0.0000E+00  0.1600E+02
    -18.099  0.0000E+00  0.1600E+02
    -17.998  0.0000E+00  0.1600E+02
    -17.897  0.0000E+00  0.1600E+02
    -17.796  0.0000E+00  0.1600E+02
    -17.695  0.0000E+00  0.1600E+02
    -17.594  0.0000E+00  0.1600E+02
    -17.493  0.0000E+00  0.1600E+02
    -17.392  0.0000E+00  0.1600E+02
    -17.291  0.0000E+00  0.1600E+02
    -17.190  0.0000E+00  0.1600E+02
    -17.089  0.0000E+00  0.1600E+02
    -16.988  0.0000E+00  0.1600E+02
    -16.887  0.0000E+00  0.1600E+02
    -16.786  0.0000E+00  0.1600E+02
    -16.685  0.2652E+02  0.1868E+02
    -16.584  0.1036E+03  0.3196E+02
    -16.483  0.7922E+02  0.4400E+02
    -16.382  0.1519E+03  0.5934E+02
    -16.281  0.1583E+03  0.7923E+02
    -16.180  0.1980E+02  0.9600E+02
    -16.079  0.0000E+00  0.9600E+02
    -15.978  0.0000E+00  0.9600E+02
    -15.877  0.0000E+00  0.9600E+02
    -15.776  0.0000E+00  0.9600E+02
    -15.676  0.0000E+00  0.9600E+02
    -15.575  0.0000E+00  0.9600E+02
    -15.474  0.0000E+00  0.9600E+02
    -15.373  0.0000E+00  0.9600E+02
    -15.272  0.0000E+00  0.9600E+02
    -15.171  0.0000E+00  0.9600E+02
    -15.070  0.0000E+00  0.9600E+02
    -14.969  0.0000E+00  0.9600E+02
    -14.868  0.0000E+00  0.9600E+02
    -14.767  0.0000E+00  0.9600E+02
    -14.666  0.0000E+00  0.9600E+02
    -14.565  0.0000E+00  0.9600E+02
    -14.464  0.1980E+02  0.9800E+02
    -14.363  0.1981E+02  0.1000E+03
    -14.262  0.1725E+02  0.1017E+03
    -14.161  0.4216E+02  0.1065E+03
    -14.060  0.7366E+02  0.1152E+03
    -13.959  0.6764E+02  0.1238E+03
    -13.858  0.7477E+02  0.1328E+03
    -13.757  0.5481E+02  0.1405E+03
    -13.656  0.7424E+01  0.1420E+03
    -13.555  0.0000E+00  0.1420E+03
    -13.454  0.0000E+00  0.1420E+03
    -13.353  0.0000E+00  0.1420E+03
    -13.252  0.0000E+00  0.1420E+03
    -13.151  0.0000E+00  0.1420E+03
    -13.050  0.0000E+00  0.1420E+03
    -12.949  0.0000E+00  0.1420E+03
    -12.848  0.0000E+00  0.1420E+03
    -12.747  0.0000E+00  0.1420E+03
    -12.646  0.0000E+00  0.1420E+03
    -12.545  0.0000E+00  0.1420E+03
    -12.444  0.0000E+00  0.1420E+03
    -12.343  0.0000E+00  0.1420E+03
    -12.242  0.0000E+00  0.1420E+03
    -12.141  0.0000E+00  0.1420E+03
    -12.040  0.0000E+00  0.1420E+03
    -11.939  0.0000E+00  0.1420E+03
    -11.838  0.0000E+00  0.1420E+03
    -11.737  0.0000E+00  0.1420E+03
    -11.636  0.0000E+00  0.1420E+03
    -11.535  0.0000E+00  0.1420E+03
    -11.435  0.0000E+00  0.1420E+03
    -11.334  0.0000E+00  0.1420E+03
    -11.233  0.0000E+00  0.1420E+03
    -11.132  0.0000E+00  0.1420E+03
    -11.031  0.0000E+00  0.1420E+03
    -10.930  0.0000E+00  0.1420E+03
    -10.829  0.0000E+00  0.1420E+03
    -10.728  0.0000E+00  0.1420E+03
    -10.627  0.0000E+00  0.1420E+03
    -10.526  0.0000E+00  0.1420E+03
    -10.425  0.0000E+00  0.1420E+03
    -10.324  0.0000E+00  0.1420E+03
    -10.223  0.0000E+00  0.1420E+03
    -10.122  0.0000E+00  0.1420E+03
    -10.021  0.0000E+00  0.1420E+03
     -9.920  0.0000E+00  0.1420E+03
     -9.819  0.0000E+00  0.1420E+03
     -9.718  0.0000E+00  0.1420E+03
     -9.617  0.0000E+00  0.1420E+03
     -9.516  0.0000E+00  0.1420E+03
     -9.415  0.0000E+00  0.1420E+03
     -9.314  0.0000E+00  0.1420E+03
     -9.213  0.0000E+00  0.1420E+03
     -9.112  0.0000E+00  0.1420E+03
     -9.011  0.0000E+00  0.1420E+03
     -8.910  0.0000E+00  0.1420E+03
     -8.809  0.0000E+00  0.1420E+03
     -8.708  0.0000E+00  0.1420E+03
     -8.607  0.0000E+00  0.1420E+03
     -8.506  0.0000E+00  0.1420E+03
     -8.405  0.0000E+00  0.1420E+03
     -8.304  0.0000E+00  0.1420E+03
     -8.203  0.2280E+01  0.1422E+03
     -8.102  0.4853E-06  0.1423E+03
     -8.001  0.5736E+01  0.1428E+03
     -7.900  0.9517E+01  0.1442E+03
     -7.799  0.6716E+01  0.1452E+03
     -7.698  0.1936E+02  0.1472E+03
     -7.597  0.1169E+02  0.1489E+03
     -7.496  0.1095E+02  0.1501E+03
     -7.395  0.1981E+02  0.1530E+03
     -7.294  0.2066E+02  0.1551E+03
     -7.194  0.1205E+03  0.1682E+03
     -7.093  0.2598E+03  0.1992E+03
     -6.992  0.2228E+02  0.2045E+03
     -6.891  0.4952E+01  0.2050E+03
     -6.790  0.7427E+01  0.2058E+03
     -6.689  0.0000E+00  0.2058E+03
     -6.588  0.8583E+00  0.2058E+03
     -6.487  0.0000E+00  0.2060E+03
     -6.386  0.0000E+00  0.2060E+03
     -6.285  0.0000E+00  0.2060E+03
     -6.184  0.0000E+00  0.2060E+03
     -6.083  0.0000E+00  0.2060E+03
     -5.982  0.0000E+00  0.2060E+03
     -5.881  0.0000E+00  0.2060E+03
     -5.780  0.0000E+00  0.2060E+03
     -5.679  0.0000E+00  0.2060E+03
     -5.578  0.0000E+00  0.2060E+03
     -5.477  0.0000E+00  0.2060E+03
     -5.376  0.0000E+00  0.2060E+03
     -5.275  0.0000E+00  0.2060E+03
     -5.174  0.0000E+00  0.2060E+03
     -5.073  0.0000E+00  0.2060E+03
     -4.972  0.0000E+00  0.2060E+03
     -4.871  0.0000E+00  0.2060E+03
     -4.770  0.0000E+00  0.2060E+03
     -4.669  0.0000E+00  0.2060E+03
     -4.568  0.0000E+00  0.2060E+03
     -4.467  0.0000E+00  0.2060E+03
     -4.366  0.0000E+00  0.2060E+03
     -4.265  0.0000E+00  0.2060E+03
     -4.164  0.0000E+00  0.2060E+03
     -4.063  0.0000E+00  0.2060E+03
     -3.962  0.0000E+00  0.2060E+03
     -3.861  0.0000E+00  0.2060E+03
     -3.760  0.0000E+00  0.2060E+03
     -3.659  0.0000E+00  0.2060E+03
     -3.558  0.0000E+00  0.2060E+03
     -3.457  0.0000E+00  0.2060E+03
     -3.356  0.2683E+01  0.2063E+03
     -3.255  0.2554E+02  0.2096E+03
     -3.154  0.3053E+02  0.2141E+03
     -3.053  0.2709E+02  0.2170E+03
     -2.952  0.2088E+02  0.2191E+03
     -2.852  0.7425E+01  0.2200E+03
     -2.751  0.9239E-05  0.2200E+03
     -2.650  0.2189E+02  0.2222E+03
     -2.549  0.3920E+02  0.2270E+03
     -2.448  0.2472E+02  0.2300E+03
     -2.347  0.3829E+02  0.2346E+03
     -2.246  0.2269E+02  0.2383E+03
     -2.145  0.2193E+02  0.2415E+03
     -2.044  0.2524E+02  0.2450E+03
     -1.943  0.3009E+02  0.2490E+03
     -1.842  0.2802E+02  0.2531E+03
     -1.741  0.4354E+02  0.2584E+03
     -1.640  0.4740E+02  0.2645E+03
     -1.539  0.6402E+02  0.2725E+03
     -1.438  0.8057E+02  0.2824E+03
     -1.337  0.1040E+03  0.2955E+03
     -1.236  0.8320E+02  0.3062E+03
     -1.135  0.8188E+02  0.3160E+03
     -1.034  0.6243E+02  0.3256E+03
     -0.933  0.2868E+02  0.3296E+03
     -0.832  0.2585E+02  0.3334E+03
     -0.731  0.1228E+02  0.3355E+03
     -0.630  0.6965E+01  0.3367E+03
     -0.529  0.9850E+01  0.3382E+03
     -0.428  0.1880E+02  0.3404E+03
     -0.327  0.1003E+02  0.3415E+03
     -0.226  0.2447E+01  0.3420E+03
     -0.125  0.1291E+01  0.3424E+03
     -0.024  0.4952E+01  0.3430E+03
      0.077  0.7207E+01  0.3437E+03
      0.178  0.0000E+00  0.3438E+03
      0.279  0.0000E+00  0.3438E+03
      0.380  0.1150E+01  0.3439E+03
      0.481  0.0000E+00  0.3440E+03
      0.582  0.0000E+00  0.3440E+03
      0.683  0.0000E+00  0.3440E+03
      0.784  0.0000E+00  0.3440E+03
      0.885  0.0000E+00  0.3440E+03
      0.986  0.0000E+00  0.3440E+03
      1.087  0.0000E+00  0.3440E+03
      1.188  0.0000E+00  0.3440E+03
      1.289  0.0000E+00  0.3440E+03
      1.389  0.0000E+00  0.3440E+03
      1.490  0.0000E+00  0.3440E+03
      1.591  0.0000E+00  0.3440E+03
      1.692  0.0000E+00  0.3440E+03
      1.793  0.0000E+00  0.3440E+03
      1.894  0.0000E+00  0.3440E+03
      1.995  0.0000E+00  0.3440E+03
      2.096  0.0000E+00  0.3440E+03
      2.197  0.0000E+00  0.3440E+03
      2.298  0.0000E+00  0.3440E+03
      2.399  0.0000E+00  0.3440E+03
      2.500  0.3560E+01  0.3444E+03
      2.601  0.8199E+01  0.3453E+03
      2.702  0.4579E+01  0.3460E+03
      2.803  0.2476E+01  0.3462E+03
      2.904  0.6653E+01  0.3469E+03
      3.005  0.1485E+02  0.3487E+03
      3.106  0.1246E+02  0.3500E+03
      3.207  0.2291E+02  0.3528E+03
      3.308  0.1074E+02  0.3543E+03
      3.409  0.1731E+02  0.3567E+03
      3.510  0.9903E+01  0.3577E+03
      3.611  0.2476E+01  0.3580E+03
      3.712  0.0000E+00  0.3580E+03
      3.813  0.0000E+00  0.3580E+03
      3.914  0.4951E+01  0.3585E+03
      4.015  0.9918E+01  0.3595E+03
      4.116  0.2476E+01  0.3600E+03
      4.217  0.1076E-03  0.3600E+03
      4.318  0.2145E+02  0.3622E+03
      4.419  0.2597E+02  0.3654E+03
      4.520  0.2099E+02  0.3681E+03
      4.621  0.2547E+02  0.3718E+03
      4.722  0.2235E+02  0.3748E+03
      4.823  0.2911E+02  0.3782E+03
      4.924  0.1942E+02  0.3810E+03
      5.025  0.5491E+01  0.3818E+03
      5.126  0.2474E+01  0.3822E+03
      5.227  0.0000E+00  0.3822E+03
      5.328  0.2476E+01  0.3825E+03
      5.429  0.2476E+01  0.3828E+03
      5.530  0.5450E+01  0.3833E+03
      5.630  0.9103E+01  0.3847E+03
      5.731  0.1176E+02  0.3859E+03
      5.832  0.1734E+02  0.3878E+03
      5.933  0.2624E+02  0.3904E+03
      6.034  0.2281E+02  0.3933E+03
      6.135  0.2830E+02  0.3971E+03
      6.236  0.2566E+02  0.4003E+03
      6.337  0.3702E+02  0.4052E+03
      6.438  0.2532E+02  0.4088E+03
      6.539  0.2864E+02  0.4121E+03
      6.640  0.2117E+02  0.4154E+03
      6.741  0.4949E+01  0.4160E+03
      6.842  0.0000E+00  0.4160E+03
      6.943  0.0000E+00  0.4160E+03
      7.044  0.0000E+00  0.4160E+03
      7.145  0.0000E+00  0.4160E+03
      7.246  0.0000E+00  0.4160E+03
      7.347  0.0000E+00  0.4160E+03
      7.448  0.0000E+00  0.4160E+03
      7.549  0.0000E+00  0.4160E+03
      7.650  0.0000E+00  0.4160E+03
      7.751  0.0000E+00  0.4160E+03
      7.852  0.0000E+00  0.4160E+03
      7.953  0.0000E+00  0.4160E+03
      8.054  0.0000E+00  0.4160E+03
      8.05392119    -22.23898082  301      0.43020752      1.00000000
    -22.239  0.0000E+00  0.0000E+00  0.0000E+00
    -22.138  0.0000E+00  0.0000E+00  0.0000E+00
    -22.037  0.0000E+00  0.0000E+00  0.0000E+00
    -21.936  0.0000E+00  0.0000E+00  0.0000E+00
    -21.835  0.0000E+00  0.0000E+00  0.0000E+00
    -21.734  0.0000E+00  0.0000E+00  0.0000E+00
    -21.633  0.0000E+00  0.0000E+00  0.0000E+00
    -21.532  0.0000E+00  0.0000E+00  0.0000E+00
    -21.431  0.0000E+00  0.0000E+00  0.0000E+00
    -21.330  0.0000E+00  0.0000E+00  0.0000E+00
    -21.229  0.0000E+00  0.0000E+00  0.0000E+00
    -21.128  0.0000E+00  0.0000E+00  0.0000E+00
    -21.027  0.0000E+00  0.0000E+00  0.0000E+00
    -20.926  0.0000E+00  0.0000E+00  0.0000E+00
    -20.825  0.4723E-03  0.5568E-07  0.1088E-07
    -20.724  0.1758E+02  0.7993E-04  0.6812E-05
    -20.623  0.2537E-04  0.3396E-08  0.3918E-09
    -20.522  0.0000E+00  0.0000E+00  0.0000E+00
    -20.421  0.0000E+00  0.0000E+00  0.0000E+00
    -20.320  0.0000E+00  0.0000E+00  0.0000E+00
    -20.219  0.0000E+00  0.0000E+00  0.0000E+00
    -20.118  0.0000E+00  0.0000E+00  0.0000E+00
    -20.018  0.0000E+00  0.0000E+00  0.0000E+00
    -19.917  0.0000E+00  0.0000E+00  0.0000E+00
    -19.816  0.0000E+00  0.0000E+00  0.0000E+00
    -19.715  0.0000E+00  0.0000E+00  0.0000E+00
    -19.614  0.0000E+00  0.0000E+00  0.0000E+00
    -19.513  0.0000E+00  0.0000E+00  0.0000E+00
    -19.412  0.0000E+00  0.0000E+00  0.0000E+00
    -19.311  0.0000E+00  0.0000E+00  0.0000E+00
    -19.210  0.0000E+00  0.0000E+00  0.0000E+00
    -19.109  0.0000E+00  0.0000E+00  0.0000E+00
    -19.008  0.0000E+00  0.0000E+00  0.0000E+00
    -18.907  0.0000E+00  0.0000E+00  0.0000E+00
    -18.806  0.0000E+00  0.0000E+00  0.0000E+00
    -18.705  0.0000E+00  0.0000E+00  0.0000E+00
    -18.604  0.0000E+00  0.0000E+00  0.0000E+00
    -18.503  0.0000E+00  0.0000E+00  0.0000E+00
    -18.402  0.0000E+00  0.0000E+00  0.0000E+00
    -18.301  0.0000E+00  0.0000E+00  0.0000E+00
    -18.200  0.0000E+00  0.0000E+00  0.0000E+00
    -18.099  0.0000E+00  0.0000E+00  0.0000E+00
    -17.998  0.0000E+00  0.0000E+00  0.0000E+00
    -17.897  0.0000E+00  0.0000E+00  0.0000E+00
    -17.796  0.0000E+00  0.0000E+00  0.0000E+00
    -17.695  0.0000E+00  0.0000E+00  0.0000E+00
    -17.594  0.0000E+00  0.0000E+00  0.0000E+00
    -17.493  0.0000E+00  0.0000E+00  0.0000E+00
    -17.392  0.0000E+00  0.0000E+00  0.0000E+00
    -17.291  0.0000E+00  0.0000E+00  0.0000E+00
    -17.190  0.0000E+00  0.0000E+00  0.0000E+00
    -17.089  0.0000E+00  0.0000E+00  0.0000E+00
    -16.988  0.0000E+00  0.0000E+00  0.0000E+00
    -16.887  0.0000E+00  0.0000E+00  0.0000E+00
    -16.786  0.0000E+00  0.0000E+00  0.0000E+00
    -16.685  0.2202E-04  0.8174E-05  0.8747E-06
    -16.584  0.4159E-04  0.2285E-04  0.3451E-05
    -16.483  0.9423E-05  0.4478E-05  0.5607E-06
    -16.382  0.5646E-04  0.7181E-04  0.1700E-04
    -16.281  0.5511E-04  0.3656E-04  0.4004E-05
    -16.180  0.2846E-05  0.2045E-05  0.2969E-06
    -16.079  0.0000E+00  0.0000E+00  0.0000E+00
    -15.978  0.0000E+00  0.0000E+00  0.0000E+00
    -15.877  0.0000E+00  0.0000E+00  0.0000E+00
    -15.776  0.0000E+00  0.0000E+00  0.0000E+00
    -15.676  0.0000E+00  0.0000E+00  0.0000E+00
    -15.575  0.0000E+00  0.0000E+00  0.0000E+00
    -15.474  0.0000E+00  0.0000E+00  0.0000E+00
    -15.373  0.0000E+00  0.0000E+00  0.0000E+00
    -15.272  0.0000E+00  0.0000E+00  0.0000E+00
    -15.171  0.0000E+00  0.0000E+00  0.0000E+00
    -15.070  0.0000E+00  0.0000E+00  0.0000E+00
    -14.969  0.0000E+00  0.0000E+00  0.0000E+00
    -14.868  0.0000E+00  0.0000E+00  0.0000E+00
    -14.767  0.0000E+00  0.0000E+00  0.0000E+00
    -14.666  0.0000E+00  0.0000E+00  0.0000E+00
    -14.565  0.0000E+00  0.0000E+00  0.0000E+00
    -14.464  0.5029E-03  0.2560E-03  0.1081E-04
    -14.363  0.4634E-03  0.3225E-03  0.1469E-04
    -14.262  0.3318E-02  0.1574E-02  0.2033E-04
    -14.161  0.2328E-02  0.3915E-02  0.1240E-03
    -14.060  0.1194E-02  0.4961E-02  0.3349E-03
    -13.959  0.2734E-02  0.6132E-02  0.5722E-03
    -13.858  0.9709E-03  0.4804E-02  0.6130E-03
    -13.757  0.7527E-03  0.1835E-02  0.3237E-03
    -13.656  0.1497E-03  0.3295E-03  0.2111E-04
    -13.555  0.0000E+00  0.0000E+00  0.0000E+00
    -13.454  0.0000E+00  0.0000E+00  0.0000E+00
    -13.353  0.0000E+00  0.0000E+00  0.0000E+00
    -13.252  0.0000E+00  0.0000E+00  0.0000E+00
    -13.151  0.0000E+00  0.0000E+00  0.0000E+00
    -13.050  0.0000E+00  0.0000E+00  0.0000E+00
    -12.949  0.0000E+00  0.0000E+00  0.0000E+00
    -12.848  0.0000E+00  0.0000E+00  0.0000E+00
    -12.747  0.0000E+00  0.0000E+00  0.0000E+00
    -12.646  0.0000E+00  0.0000E+00  0.0000E+00
    -12.545  0.0000E+00  0.0000E+00  0.0000E+00
    -12.444  0.0000E+00  0.0000E+00  0.0000E+00
    -12.343  0.0000E+00  0.0000E+00  0.0000E+00
    -12.242  0.0000E+00  0.0000E+00  0.0000E+00
    -12.141  0.0000E+00  0.0000E+00  0.0000E+00
    -12.040  0.0000E+00  0.0000E+00  0.0000E+00
    -11.939  0.0000E+00  0.0000E+00  0.0000E+00
    -11.838  0.0000E+00  0.0000E+00  0.0000E+00
    -11.737  0.0000E+00  0.0000E+00  0.0000E+00
    -11.636  0.0000E+00  0.0000E+00  0.0000E+00
    -11.535  0.0000E+00  0.0000E+00  0.0000E+00
    -11.435  0.0000E+00  0.0000E+00  0.0000E+00
    -11.334  0.0000E+00  0.0000E+00  0.0000E+00
    -11.233  0.0000E+00  0.0000E+00  0.0000E+00
    -11.132  0.0000E+00  0.0000E+00  0.0000E+00
    -11.031  0.0000E+00  0.0000E+00  0.0000E+00
    -10.930  0.0000E+00  0.0000E+00  0.0000E+00
    -10.829  0.0000E+00  0.0000E+00  0.0000E+00
    -10.728  0.0000E+00  0.0000E+00  0.0000E+00
    -10.627  0.0000E+00  0.0000E+00  0.0000E+00
    -10.526  0.0000E+00  0.0000E+00  0.0000E+00
    -10.425  0.0000E+00  0.0000E+00  0.0000E+00
    -10.324  0.0000E+00  0.0000E+00  0.0000E+00
    -10.223  0.0000E+00  0.0000E+00  0.0000E+00
    -10.122  0.0000E+00  0.0000E+00  0.0000E+00
    -10.021  0.0000E+00  0.0000E+00  0.0000E+00
     -9.920  0.0000E+00  0.0000E+00  0.0000E+00
     -9.819  0.0000E+00  0.0000E+00  0.0000E+00
     -9.718  0.0000E+00  0.0000E+00  0.0000E+00
     -9.617  0.0000E+00  0.0000E+00  0.0000E+00
     -9.516  0.0000E+00  0.0000E+00  0.0000E+00
     -9.415  0.0000E+00  0.0000E+00  0.0000E+00
     -9.314  0.0000E+00  0.0000E+00  0.0000E+00
     -9.213  0.0000E+00  0.0000E+00  0.0000E+00
     -9.112  0.0000E+00  0.0000E+00  0.0000E+00
     -9.011  0.0000E+00  0.0000E+00  0.0000E+00
     -8.910  0.0000E+00  0.0000E+00  0.0000E+00
     -8.809  0.0000E+00  0.0000E+00  0.0000E+00
     -8.708  0.0000E+00  0.0000E+00  0.0000E+00
     -8.607  0.0000E+00  0.0000E+00  0.0000E+00
     -8.506  0.0000E+00  0.0000E+00  0.0000E+00
     -8.405  0.0000E+00  0.0000E+00  0.0000E+00
     -8.304  0.0000E+00  0.0000E+00  0.0000E+00
     -8.203  0.2252E-07  0.3403E-03  0.1110E-04
     -8.102  0.2153E-14  0.3122E-09  0.9044E-12
     -8.001  0.1380E-06  0.2850E-02  0.1916E-04
     -7.900  0.1846E-06  0.8974E-02  0.3488E-04
     -7.799  0.5687E-06  0.1087E-01  0.2592E-04
     -7.698  0.6014E-05  0.2654E-01  0.7232E-04
     -7.597  0.1254E-04  0.2500E-01  0.4018E-04
     -7.496  0.6538E-05  0.3473E-01  0.3610E-04
     -7.395  0.2912E-04  0.1448E+00  0.4968E-04
     -7.294  0.7878E-05  0.1850E+00  0.2374E-04
     -7.194  0.5285E-04  0.4281E+01  0.6810E-04
     -7.093  0.1435E-03  0.2892E+02  0.1462E-03
     -6.992  0.2364E-04  0.3480E+00  0.1878E-04
     -6.891  0.2821E-04  0.1985E-01  0.1301E-04
     -6.790  0.2978E-04  0.3919E-01  0.1622E-04
     -6.689  0.0000E+00  0.0000E+00  0.0000E+00
     -6.588  0.3649E-05  0.2082E-02  0.4629E-06
     -6.487  0.0000E+00  0.0000E+00  0.0000E+00
     -6.386  0.0000E+00  0.0000E+00  0.0000E+00
     -6.285  0.0000E+00  0.0000E+00  0.0000E+00
     -6.184  0.0000E+00  0.0000E+00  0.0000E+00
     -6.083  0.0000E+00  0.0000E+00  0.0000E+00
     -5.982  0.0000E+00  0.0000E+00  0.0000E+00
     -5.881  0.0000E+00  0.0000E+00  0.0000E+00
     -5.780  0.0000E+00  0.0000E+00  0.0000E+00
     -5.679  0.0000E+00  0.0000E+00  0.0000E+00
     -5.578  0.0000E+00  0.0000E+00  0.0000E+00
     -5.477  0.0000E+00  0.0000E+00  0.0000E+00
     -5.376  0.0000E+00  0.0000E+00  0.0000E+00
     -5.275  0.0000E+00  0.0000E+00  0.0000E+00
     -5.174  0.0000E+00  0.0000E+00  0.0000E+00
     -5.073  0.0000E+00  0.0000E+00  0.0000E+00
     -4.972  0.0000E+00  0.0000E+00  0.0000E+00
     -4.871  0.0000E+00  0.0000E+00  0.0000E+00
     -4.770  0.0000E+00  0.0000E+00  0.0000E+00
     -4.669  0.0000E+00  0.0000E+00  0.0000E+00
     -4.568  0.0000E+00  0.0000E+00  0.0000E+00
     -4.467  0.0000E+00  0.0000E+00  0.0000E+00
     -4.366  0.0000E+00  0.0000E+00  0.0000E+00
     -4.265  0.0000E+00  0.0000E+00  0.0000E+00
     -4.164  0.0000E+00  0.0000E+00  0.0000E+00
     -4.063  0.0000E+00  0.0000E+00  0.0000E+00
     -3.962  0.0000E+00  0.0000E+00  0.0000E+00
     -3.861  0.0000E+00  0.0000E+00  0.0000E+00
     -3.760  0.0000E+00  0.0000E+00  0.0000E+00
     -3.659  0.0000E+00  0.0000E+00  0.0000E+00
     -3.558  0.0000E+00  0.0000E+00  0.0000E+00
     -3.457  0.0000E+00  0.0000E+00  0.0000E+00
     -3.356  0.1060E-04  0.2722E-02  0.2772E-04
     -3.255  0.2794E-03  0.1632E-01  0.1399E-02
     -3.154  0.4495E-03  0.1952E-01  0.1878E-02
     -3.053  0.1262E-03  0.5896E-02  0.8231E-03
     -2.952  0.2513E-03  0.6483E-02  0.4704E-03
     -2.852  0.1486E-03  0.2319E-02  0.1574E-03
     -2.751  0.2346E-09  0.7293E-08  0.3820E-09
     -2.650  0.9345E-03  0.1963E-01  0.9361E-03
     -2.549  0.1690E-02  0.3032E-01  0.2042E-02
     -2.448  0.1429E-02  0.2175E-01  0.1303E-02
     -2.347  0.1725E-02  0.2822E-01  0.3253E-02
     -2.246  0.3383E-02  0.1027E-01  0.2447E-02
     -2.145  0.6533E-02  0.1050E-01  0.1794E-02
     -2.044  0.6224E-02  0.1615E-01  0.2578E-02
     -1.943  0.1791E-01  0.3910E-01  0.3073E-02
     -1.842  0.3188E-02  0.4828E-01  0.3715E-02
     -1.741  0.3650E-02  0.7423E-01  0.6385E-02
     -1.640  0.3965E-02  0.1065E+00  0.1203E-01
     -1.539  0.2833E-02  0.1089E+00  0.1294E-01
     -1.438  0.5287E-02  0.6944E-01  0.1671E-01
     -1.337  0.4661E-02  0.8628E-01  0.2211E-01
     -1.236  0.5417E-02  0.5499E-01  0.1341E-01
     -1.135  0.2377E-02  0.9289E-01  0.1555E-01
     -1.034  0.8958E-03  0.4434E-01  0.9023E-02
     -0.933  0.7526E-03  0.1807E-01  0.3115E-02
     -0.832  0.1485E-02  0.2603E-01  0.4771E-02
     -0.731  0.3382E-03  0.4650E-02  0.9041E-03
     -0.630  0.4907E-04  0.1234E-02  0.7768E-03
     -0.529  0.1495E-03  0.1303E-02  0.6371E-03
     -0.428  0.3442E-04  0.3913E-02  0.1298E-02
     -0.327  0.1227E-03  0.1690E-02  0.7137E-03
     -0.226  0.4598E-05  0.7805E-03  0.5388E-04
     -0.125  0.2996E-05  0.7717E-05  0.1333E-03
     -0.024  0.4421E-05  0.3838E-03  0.3684E-03
      0.077  0.6431E-05  0.9979E-03  0.4943E-03
      0.178  0.0000E+00  0.0000E+00  0.0000E+00
      0.279  0.0000E+00  0.0000E+00  0.0000E+00
      0.380  0.1286E-08  0.7980E-04  0.9277E-04
      0.481  0.0000E+00  0.0000E+00  0.0000E+00
      0.582  0.0000E+00  0.0000E+00  0.0000E+00
      0.683  0.0000E+00  0.0000E+00  0.0000E+00
      0.784  0.0000E+00  0.0000E+00  0.0000E+00
      0.885  0.0000E+00  0.0000E+00  0.0000E+00
      0.986  0.0000E+00  0.0000E+00  0.0000E+00
      1.087  0.0000E+00  0.0000E+00  0.0000E+00
      1.188  0.0000E+00  0.0000E+00  0.0000E+00
      1.289  0.0000E+00  0.0000E+00  0.0000E+00
      1.389  0.0000E+00  0.0000E+00  0.0000E+00
      1.490  0.0000E+00  0.0000E+00  0.0000E+00
      1.591  0.0000E+00  0.0000E+00  0.0000E+00
      1.692  0.0000E+00  0.0000E+00  0.0000E+00
      1.793  0.0000E+00  0.0000E+00  0.0000E+00
      1.894  0.0000E+00  0.0000E+00  0.0000E+00
      1.995  0.0000E+00  0.0000E+00  0.0000E+00
      2.096  0.0000E+00  0.0000E+00  0.0000E+00
      2.197  0.0000E+00  0.0000E+00  0.0000E+00
      2.298  0.0000E+00  0.0000E+00  0.0000E+00
      2.399  0.0000E+00  0.0000E+00  0.0000E+00
      2.500  0.5170E-04  0.1886E-03  0.6221E-04
      2.601  0.1289E-03  0.6064E-03  0.1922E-02
      2.702  0.7706E-05  0.7528E-03  0.1859E-02
      2.803  0.4283E-04  0.3119E-03  0.6949E-03
      2.904  0.2143E-03  0.8820E-03  0.1988E-02
      3.005  0.3282E-03  0.1611E-02  0.4981E-02
      3.106  0.6549E-03  0.2377E-02  0.2503E-02
      3.207  0.8755E-03  0.4036E-02  0.5417E-02
      3.308  0.8299E-03  0.2693E-02  0.2030E-02
      3.409  0.7253E-03  0.2814E-02  0.3102E-02
      3.510  0.4440E-03  0.9397E-03  0.1748E-02
      3.611  0.5354E-03  0.1684E-03  0.8893E-03
      3.712  0.0000E+00  0.0000E+00  0.0000E+00
      3.813  0.0000E+00  0.0000E+00  0.0000E+00
      3.914  0.9727E-03  0.4473E-02  0.9772E-02
      4.015  0.9458E-03  0.4493E-02  0.1088E-01
      4.116  0.2641E-04  0.8588E-04  0.1429E-02
      4.217  0.1452E-08  0.5133E-08  0.5190E-07
      4.318  0.4726E-03  0.2588E-02  0.8923E-02
      4.419  0.1421E-02  0.6076E-02  0.1790E-01
      4.520  0.4627E-02  0.5335E-02  0.9030E-02
      4.621  0.2665E-02  0.4972E-02  0.7442E-02
      4.722  0.2360E-02  0.4999E-02  0.8995E-02
      4.823  0.1368E-01  0.6844E-02  0.9704E-02
      4.924  0.3876E-02  0.4934E-02  0.8362E-02
      5.025  0.6655E-03  0.3012E-03  0.1049E-02
      5.126  0.1159E-04  0.6123E-04  0.5839E-03
      5.227  0.0000E+00  0.0000E+00  0.0000E+00
      5.328  0.5417E-02  0.3985E-02  0.2600E-02
      5.429  0.1189E-01  0.2852E-02  0.2006E-02
      5.530  0.8152E-02  0.7566E-02  0.8436E-02
      5.630  0.1577E-01  0.5126E-02  0.1395E-01
      5.731  0.3021E-02  0.2485E-02  0.1538E-01
      5.832  0.7685E-02  0.3223E-02  0.3738E-01
      5.933  0.7586E-02  0.6574E-02  0.7307E-01
      6.034  0.8508E-02  0.1232E-01  0.8354E-01
      6.135  0.5001E-01  0.1083E-01  0.9968E-01
      6.236  0.3378E-01  0.1453E-01  0.1666E+00
      6.337  0.3555E-01  0.1774E-01  0.3615E+00
      6.438  0.2653E-01  0.2031E-01  0.2851E+00
      6.539  0.3340E-01  0.2469E-01  0.3536E+00
      6.640  0.3653E-01  0.1940E-01  0.2542E+00
      6.741  0.9743E-04  0.3658E-02  0.7031E-01
      6.842  0.0000E+00  0.0000E+00  0.0000E+00
      6.943  0.0000E+00  0.0000E+00  0.0000E+00
      7.044  0.0000E+00  0.0000E+00  0.0000E+00
      7.145  0.0000E+00  0.0000E+00  0.0000E+00
      7.246  0.0000E+00  0.0000E+00  0.0000E+00
      7.347  0.0000E+00  0.0000E+00  0.0000E+00
      7.448  0.0000E+00  0.0000E+00  0.0000E+00
      7.549  0.0000E+00  0.0000E+00  0.0000E+00
      7.650  0.0000E+00  0.0000E+00  0.0000E+00
      7.751  0.0000E+00  0.0000E+00  0.0000E+00
      7.852  0.0000E+00  0.0000E+00  0.0000E+00
      7.953  0.0000E+00  0.0000E+00  0.0000E+00
      8.054  0.0000E+00  0.0000E+00  0.0000E+00
      8.05392119    -22.23898082  301      0.43020752      1.00000000
    -22.239  0.0000E+00  0.0000E+00  0.0000E+00
    -22.138  0.0000E+00  0.0000E+00  0.0000E+00
    -22.037  0.0000E+00  0.0000E+00  0.0000E+00
    -21.936  0.0000E+00  0.0000E+00  0.0000E+00
    -21.835  0.0000E+00  0.0000E+00  0.0000E+00
    -21.734  0.0000E+00  0.0000E+00  0.0000E+00
    -21.633  0.0000E+00  0.0000E+00  0.0000E+00
    -21.532  0.0000E+00  0.0000E+00  0.0000E+00
    -21.431  0.0000E+00  0.0000E+00  0.0000E+00
    -21.330  0.0000E+00  0.0000E+00  0.0000E+00
    -21.229  0.0000E+00  0.0000E+00  0.0000E+00
    -21.128  0.0000E+00  0.0000E+00  0.0000E+00
    -21.027  0.0000E+00  0.0000E+00  0.0000E+00
    -20.926  0.0000E+00  0.0000E+00  0.0000E+00
    -20.825  0.1220E+02  0.7419E-04  0.9825E-05
    -20.724  0.4080E-02  0.3794E-06  0.5005E-07
    -20.623  0.1412E-05  0.2242E-08  0.3126E-09
    -20.522  0.0000E+00  0.0000E+00  0.0000E+00
    -20.421  0.0000E+00  0.0000E+00  0.0000E+00
    -20.320  0.0000E+00  0.0000E+00  0.0000E+00
    -20.219  0.0000E+00  0.0000E+00  0.0000E+00
    -20.118  0.0000E+00  0.0000E+00  0.0000E+00
    -20.018  0.0000E+00  0.0000E+00  0.0000E+00
    -19.917  0.0000E+00  0.0000E+00  0.0000E+00
    -19.816  0.0000E+00  0.0000E+00  0.0000E+00
    -19.715  0.0000E+00  0.0000E+00  0.0000E+00
    -19.614  0.0000E+00  0.0000E+00  0.0000E+00
    -19.513  0.0000E+00  0.0000E+00  0.0000E+00
    -19.412  0.0000E+00  0.0000E+00  0.0000E+00
    -19.311  0.0000E+00  0.0000E+00  0.0000E+00
    -19.210  0.0000E+00  0.0000E+00  0.0000E+00
    -19.109  0.0000E+00  0.0000E+00  0.0000E+00
    -19.008  0.0000E+00  0.0000E+00  0.0000E+00
    -18.907  0.0000E+00  0.0000E+00  0.0000E+00
    -18.806  0.0000E+00  0.0000E+00  0.0000E+00
    -18.705  0.0000E+00  0.0000E+00  0.0000E+00
    -18.604  0.0000E+00  0.0000E+00  0.0000E+00
    -18.503  0.0000E+00  0.0000E+00  0.0000E+00
    -18.402  0.0000E+00  0.0000E+00  0.0000E+00
    -18.301  0.0000E+00  0.0000E+00  0.0000E+00
    -18.200  0.0000E+00  0.0000E+00  0.0000E+00
    -18.099  0.0000E+00  0.0000E+00  0.0000E+00
    -17.998  0.0000E+00  0.0000E+00  0.0000E+00
    -17.897  0.0000E+00  0.0000E+00  0.0000E+00
    -17.796  0.0000E+00  0.0000E+00  0.0000E+00
    -17.695  0.0000E+00  0.0000E+00  0.0000E+00
    -17.594  0.0000E+00  0.0000E+00  0.0000E+00
    -17.493  0.0000E+00  0.0000E+00  0.0000E+00
    -17.392  0.0000E+00  0.0000E+00  0.0000E+00
    -17.291  0.0000E+00  0.0000E+00  0.0000E+00
    -17.190  0.0000E+00  0.0000E+00  0.0000E+00
    -17.089  0.0000E+00  0.0000E+00  0.0000E+00
    -16.988  0.0000E+00  0.0000E+00  0.0000E+00
    -16.887  0.0000E+00  0.0000E+00  0.0000E+00
    -16.786  0.0000E+00  0.0000E+00  0.0000E+00
    -16.685  0.5708E-04  0.2563E-04  0.3529E-05
    -16.584  0.1720E-04  0.1183E-04  0.2288E-05
    -16.483  0.3829E-05  0.1818E-05  0.2109E-06
    -16.382  0.1051E-03  0.8773E-04  0.1641E-04
    -16.281  0.1979E-04  0.1875E-04  0.1998E-05
    -16.180  0.5711E-07  0.2177E-06  0.5640E-07
    -16.079  0.0000E+00  0.0000E+00  0.0000E+00
    -15.978  0.0000E+00  0.0000E+00  0.0000E+00
    -15.877  0.0000E+00  0.0000E+00  0.0000E+00
    -15.776  0.0000E+00  0.0000E+00  0.0000E+00
    -15.676  0.0000E+00  0.0000E+00  0.0000E+00
    -15.575  0.0000E+00  0.0000E+00  0.0000E+00
    -15.474  0.0000E+00  0.0000E+00  0.0000E+00
    -15.373  0.0000E+00  0.0000E+00  0.0000E+00
    -15.272  0.0000E+00  0.0000E+00  0.0000E+00
    -15.171  0.0000E+00  0.0000E+00  0.0000E+00
    -15.070  0.0000E+00  0.0000E+00  0.0000E+00
    -14.969  0.0000E+00  0.0000E+00  0.0000E+00
    -14.868  0.0000E+00  0.0000E+00  0.0000E+00
    -14.767  0.0000E+00  0.0000E+00  0.0000E+00
    -14.666  0.0000E+00  0.0000E+00  0.0000E+00
    -14.565  0.0000E+00  0.0000E+00  0.0000E+00
    -14.464  0.1654E-02  0.1866E-02  0.1366E-03
    -14.363  0.1211E-02  0.1359E-02  0.9543E-04
    -14.262  0.1772E-02  0.1823E-02  0.4280E-04
    -14.161  0.2012E-02  0.3374E-02  0.1536E-03
    -14.060  0.2155E-02  0.6211E-02  0.4493E-03
    -13.959  0.1480E-02  0.3682E-02  0.3080E-03
    -13.858  0.1039E-02  0.4072E-02  0.4229E-03
    -13.757  0.6926E-03  0.1900E-02  0.2896E-03
    -13.656  0.1043E-03  0.2264E-03  0.3724E-04
    -13.555  0.0000E+00  0.0000E+00  0.0000E+00
    -13.454  0.0000E+00  0.0000E+00  0.0000E+00
    -13.353  0.0000E+00  0.0000E+00  0.0000E+00
    -13.252  0.0000E+00  0.0000E+00  0.0000E+00