 vasp.5.4.4.18Apr17-6-g9f103f2a35 (build Jun 22 2020 09:27:21) complex           
 executed on tx2_gcc-7.3_libsci-1 date 2021.10.12  05:36:10
 running on   64 total cores
 distrk:  each k-point on   64 cores,    1 groups
 distr:  one band on NCORES_PER_BAND=   8 cores,    8 groups


--------------------------------------------------------------------------------------------------------


 INCAR:
 POTCAR:    PAW_PBE Cs_sv 08Apr2002               
 POTCAR:    PAW_PBE Pb_d 06Sep2000                
 POTCAR:    PAW_PBE Br 06Sep2000                  
 POTCAR:    PAW_PBE Cs_sv 08Apr2002               
   SHA256 =  c1463496f0f6037ed62c6012a8013a89ee9ad6ffb38599dcd6c079e7ed31779b Cs
   COPYR  = (c) Copyright 08Apr2002 Georg Kresse                                
   COPYR  = This file is part of the software VASP. Any use, copying, and all ot
   COPYR  = If you do not have a valid VASP license, you may not use, copy or di
   VRHFIN =Cs: 5s5p6s                                                           
   LEXCH  = PE                                                                  
   EATOM  =   555.6835 eV,   40.8416 Ry                                         
                                                                                
   TITEL  = PAW_PBE Cs_sv 08Apr2002                                             
   LULTRA =        F    use ultrasoft PP ?                                      
   IUNSCR =        1    unscreen: 0-lin 1-nonlin 2-no                           
   RPACOR =    2.200    partial core radius                                     
   POMASS =  132.900; ZVAL   =    9.000    mass and valenz                      
   RCORE  =    2.500    outmost cutoff radius                                   
   RWIGS  =    2.500; RWIGS  =    1.323    wigner-seitz radius (au A)           
   ENMAX  =  220.318; ENMIN  =  165.238 eV                                      
   RCLOC  =    2.207    cutoff for local pot                                    
   LCOR   =        T    correct aug charges                                     
   LPAW   =        T    paw PP                                                  
   EAUG   =  407.933                                                            
   DEXC   =    0.000                                                            
   RMAX   =    2.554    core radius for proj-oper                               
   RAUG   =    1.300    factor for augmentation sphere                          
   RDEP   =    2.590    radius for radial grids                                 
   RDEPT  =    2.117    core radius for aug-charge                              
                                                                                
   Atomic configuration                                                         
   13 entries                                                                   
     n  l   j            E        occ.                                          
     1  0  0.50    -35790.1377   2.0000                                         
     2  0  0.50     -5613.6201   2.0000                                         
     2  1  1.50     -5035.0101   6.0000                                         
     3  0  0.50     -1167.0767   2.0000                                         
     3  1  1.50      -980.9754   6.0000                                         
     3  2  2.50      -708.0703  10.0000                                         
     4  0  0.50      -220.2386   2.0000                                         
     4  1  1.50      -160.7596   6.0000                                         
     4  2  2.50       -74.2354  10.0000                                         
     5  0  0.50       -26.7287   2.0000                                         
     6  0  0.50        -2.0862   1.0000                                         
     5  1  1.50       -13.5159   6.0000                                         
     5  2  2.50        -0.4136   0.0000                                         
   Description                                                                  
     l       E           TYP  RCUT    TYP  RCUT                                 
     0    -26.7287425     23  1.900                                             
     0     -2.0862306     23  1.900                                             
     1    -13.5158719     23  2.500                                             
     1     -2.7211652     23  2.500                                             
     2     -0.4136171     23  2.500                                             
  local pseudopotential read in
  partial core-charges read in
  partial kinetic energy density read in
  atomic valenz-charges read in
  non local Contribution for L=           0  read in
    real space projection operators read in
  non local Contribution for L=           0  read in
    real space projection operators read in
  non local Contribution for L=           1  read in
    real space projection operators read in
  non local Contribution for L=           1  read in
    real space projection operators read in
  non local Contribution for L=           2  read in
    real space projection operators read in
    PAW grid and wavefunctions read in

   number of l-projection  operators is LMAX  =           5
   number of lm-projection operators is LMMAX =          13

 POTCAR:    PAW_PBE Pb_d 06Sep2000                
   SHA256 =  fb885b08f0fba73a15f6a6b0e39bd200c13ec96ef97cf3ecd8e63bade5137abd Pb
   COPYR  = (c) Copyright 06Sep2000 Georg Kresse                                
   COPYR  = This file is part of the software VASP. Any use, copying, and all ot
   COPYR  = If you do not have a valid VASP license, you may not use, copy or di
   VRHFIN =Pb:                                                                  
   LEXCH  = PE                                                                  
   EATOM  =  1661.6185 eV,  122.1255 Ry                                         
                                                                                
   TITEL  = PAW_PBE Pb_d 06Sep2000                                              
   LULTRA =        F    use ultrasoft PP ?                                      
   IUNSCR =        1    unscreen: 0-lin 1-nonlin 2-no                           
   RPACOR =    2.200    partial core radius                                     
   POMASS =  207.200; ZVAL   =   14.000    mass and valenz                      
   RCORE  =    2.500    outmost cutoff radius                                   
   RWIGS  =    3.260; RWIGS  =    1.725    wigner-seitz radius (au A)           
   ENMAX  =  237.835; ENMIN  =  178.376 eV                                      
   ICORE  =        3    local potential                                         
   LCOR   =        T    correct aug charges                                     
   LPAW   =        T    paw PP                                                  
   EAUG   =  391.914                                                            
   DEXC   =    0.000                                                            
   RMAX   =    2.565    core radius for proj-oper                               
   RAUG   =    1.300    factor for augmentation sphere                          
   RDEP   =    2.643    radius for radial grids                                 
   RDEPT  =    2.092    core radius for aug-charge                              
                                                                                
   Atomic configuration                                                         
   16 entries                                                                   
     n  l   j            E        occ.                                          
     1  0  0.50    -88091.8466   2.0000                                         
     2  0  0.50    -15753.4197   2.0000                                         
     2  1  1.50    -13508.1797   6.0000                                         
     3  0  0.50     -3781.7194   2.0000                                         
     3  1  1.50     -3138.2529   6.0000                                         
     3  2  2.50     -2483.2977  10.0000                                         
     4  0  0.50      -856.2895   2.0000                                         
     4  1  1.50      -645.4942   6.0000                                         
     4  2  2.50      -401.8768  10.0000                                         
     4  3  3.50      -132.9059  14.0000                                         
     5  0  0.50      -144.0950   2.0000                                         
     5  1  1.50       -85.7879   6.0000                                         
     5  2  2.50       -21.1769  10.0000                                         
     6  0  0.50       -12.0372   2.0000                                         
     6  1  1.50        -3.4971   2.0000                                         
     5  3  2.50        -2.7212   0.0000                                         
   Description                                                                  
     l       E           TYP  RCUT    TYP  RCUT                                 
     2    -21.1768523     23  2.500                                             
     2      1.3605826     23  2.500                                             
     0    -12.0371562     23  2.500                                             
     0     13.6058260     23  2.500                                             
     1     -3.4971339     23  2.500                                             
     1     13.6058260     23  2.500                                             
     3     -1.3605826      7  2.500                                             
  local pseudopotential read in
  partial core-charges read in
  partial kinetic energy density read in
  atomic valenz-charges read in
  non local Contribution for L=           2  read in
    real space projection operators read in
  non local Contribution for L=           2  read in
    real space projection operators read in
  non local Contribution for L=           0  read in
    real space projection operators read in
  non local Contribution for L=           0  read in
    real space projection operators read in
  non local Contribution for L=           1  read in
    real space projection operators read in
  non local Contribution for L=           1  read in
    real space projection operators read in
    PAW grid and wavefunctions read in

   number of l-projection  operators is LMAX  =           6
   number of lm-projection operators is LMMAX =          18

 POTCAR:    PAW_PBE Br 06Sep2000                  
   SHA256 =  96a73d2954943bbee26f4990d676cc6c3bf44b8dd2c75cd4b3b825d8403f0103 Br
   COPYR  = (c) Copyright 06Sep2000 Georg Kresse                                
   COPYR  = This file is part of the software VASP. Any use, copying, and all ot
   COPYR  = If you do not have a valid VASP license, you may not use, copy or di
   VRHFIN =Br: s2p5                                                             
   LEXCH  = PE                                                                  
   EATOM  =   368.4488 eV,   27.0802 Ry                                         
                                                                                
   TITEL  = PAW_PBE Br 06Sep2000                                                
   LULTRA =        F    use ultrasoft PP ?                                      
   IUNSCR =        1    unscreen: 0-lin 1-nonlin 2-no                           
   RPACOR =    1.900    partial core radius                                     
   POMASS =   79.904; ZVAL   =    7.000    mass and valenz                      
   RCORE  =    2.100    outmost cutoff radius                                   
   RWIGS  =    2.200; RWIGS  =    1.164    wigner-seitz radius (au A)           
   ENMAX  =  216.285; ENMIN  =  162.214 eV                                      
   ICORE  =        3    local potential                                         
   LCOR   =        T    correct aug charges                                     
   LPAW   =        T    paw PP                                                  
   EAUG   =  503.852                                                            
   DEXC   =    0.000                                                            
   RMAX   =    2.139    core radius for proj-oper                               
   RAUG   =    1.300    factor for augmentation sphere                          
   RDEP   =    2.186    radius for radial grids                                 
   RDEPT  =    1.890    core radius for aug-charge                              
                                                                                
   Atomic configuration                                                         
   10 entries                                                                   
     n  l   j            E        occ.                                          
     1  0  0.50    -13316.2796   2.0000                                         
     2  0  0.50     -1732.8239   2.0000                                         
     2  1  1.50     -1528.2193   6.0000                                         
     3  0  0.50      -238.0460   2.0000                                         
     3  1  1.50      -173.4609   6.0000                                         
     3  2  2.50       -66.7132  10.0000                                         
     4  0  0.50       -20.1334   2.0000                                         
     4  1  0.50        -7.8591   5.0000                                         
     4  2  2.50        -8.1635   0.0000                                         
     4  3  2.50        -8.1635   0.0000                                         
   Description                                                                  
     l       E           TYP  RCUT    TYP  RCUT                                 
     0    -20.1333652     23  2.100                                             
     0    -21.4939478     23  2.100                                             
     1     -7.8591052     23  2.100                                             
     1     -3.1608434     23  2.100                                             
     2     -8.1634956     23  2.100                                             
     3     -1.3605826      7  2.100                                             
  local pseudopotential read in
  partial core-charges read in
  partial kinetic energy density read in
  atomic valenz-charges read in
  non local Contribution for L=           0  read in
    real space projection operators read in
  non local Contribution for L=           0  read in
    real space projection operators read in
  non local Contribution for L=           1  read in
    real space projection operators read in
  non local Contribution for L=           1  read in
    real space projection operators read in
  non local Contribution for L=           2  read in
    real space projection operators read in
    PAW grid and wavefunctions read in

   number of l-projection  operators is LMAX  =           5
   number of lm-projection operators is LMMAX =          13

 Optimization of the real space projectors (new method)

 maximal supplied QI-value         = 15.12
 optimisation between [QCUT,QGAM] = [  8.77, 17.69] = [ 21.53, 87.61] Ry 
 Optimized for a Real-space Cutoff    1.85 Angstroem

   l    n(q)    QCUT    max X(q) W(low)/X(q) W(high)/X(q)  e(spline) 
   0     10     8.768    25.322    0.81E-04    0.51E-04    0.48E-06
   0     10     8.768    99.187    0.78E-04    0.50E-04    0.47E-06
   1      9     8.768    11.761    0.21E-03    0.20E-03    0.37E-06
   1      9     8.768     8.275    0.24E-03    0.22E-03    0.41E-06
   2      9     8.768     3.829    0.23E-04    0.15E-03    0.18E-06
 Optimization of the real space projectors (new method)

 maximal supplied QI-value         = 15.12
 optimisation between [QCUT,QGAM] = [  8.77, 17.69] = [ 21.53, 87.61] Ry 
 Optimized for a Real-space Cutoff    1.59 Angstroem

   l    n(q)    QCUT    max X(q) W(low)/X(q) W(high)/X(q)  e(spline) 
   2      7     8.768     3.846    0.48E-04    0.11E-03    0.11E-06
   2      7     8.768     8.593    0.20E-03    0.22E-04    0.24E-06
   0      8     8.768    20.082    0.68E-04    0.88E-04    0.41E-07
   0      8     8.768     8.597    0.89E-04    0.13E-03    0.59E-07
   1      8     8.768    33.223    0.15E-03    0.53E-04    0.87E-07
   1      8     8.768    15.899    0.14E-03    0.44E-04    0.78E-07
 Optimization of the real space projectors (new method)

 maximal supplied QI-value         = 17.95
 optimisation between [QCUT,QGAM] = [  8.80, 17.59] = [ 21.67, 86.68] Ry 
 Optimized for a Real-space Cutoff    1.59 Angstroem

   l    n(q)    QCUT    max X(q) W(low)/X(q) W(high)/X(q)  e(spline) 
   0      8     8.797   175.082    0.82E-04    0.14E-03    0.89E-07
   0      8     8.797   174.004    0.79E-04    0.14E-03    0.86E-07
   1      8     8.797    54.315    0.16E-03    0.14E-04    0.30E-06
   1      8     8.797    42.441    0.16E-03    0.14E-04    0.30E-06
   2      7     8.797     3.596    0.92E-04    0.15E-03    0.85E-07
  PAW_PBE Cs_sv 08Apr2002               :
 energy of atom  1       EATOM= -555.6835
 kinetic energy error for atom=    0.0069 (will be added to EATOM!!)
  PAW_PBE Pb_d 06Sep2000                :
 energy of atom  2       EATOM=-1661.6185
 kinetic energy error for atom=    0.0498 (will be added to EATOM!!)
  PAW_PBE Br 06Sep2000                  :
 energy of atom  3       EATOM= -368.4488
 kinetic energy error for atom=    0.0072 (will be added to EATOM!!)


 POSCAR: Cs8 Pb8 Br23                            
  positions in direct lattice
  No initial velocities read in

 METAGGA = SCAN     LMAXTAU =  6    LMIXTAU =  F

 exchange correlation table for  LEXCH =        8
   RHO(1)=    0.500       N(1)  =     2000
   RHO(2)=  100.500       N(2)  =     4000

 VTST: version 3.2, (02/03/18)

 CHAIN: initializing optimizer
 
 OPT: Using VASP Conjugate-Gradient optimizer
 CHAIN: Read ICHAIN            0

 POSCAR: Cs8 Pb8 Br23                            
  positions in direct lattice
  No initial velocities read in



--------------------------------------------------------------------------------------------------------


 ion  position               nearest neighbor table
   1  0.266  0.238  0.197-
   2  0.774  0.231  0.739-
   3  0.709  0.775  0.261-
   4  0.223  0.752  0.778-
   5  0.262  0.245  0.729-
   6  0.807  0.248  0.228-
   7  0.729  0.756  0.787-
   8  0.223  0.758  0.298-
   9  0.006  0.995  0.000-  21 2.96  29 2.96  34 2.99  19 2.99  28 3.00  31 3.01
  10  0.493  0.004  0.500-  33 2.99  27 2.99  32 3.00  20 3.01  30 3.02  22 3.03
  11  0.501  1.000  0.001-  31 2.95  27 2.97  17 2.99  23 3.00  29 3.01  33 3.02
  12  0.994  0.000  0.500-  34 2.98  18 2.99  30 2.99  24 3.00  28 3.00  32 3.02
  13  0.518  0.494  0.002-  37 2.91  23 2.93  35 2.96  17 2.99  25 3.00
  14  0.992  0.504  0.494-  36 2.86  18 2.96  26 2.96  24 2.97  38 3.05
  15  0.011  0.501  0.996-  21 2.95  35 2.98  19 2.99  38 3.00  25 3.05  26 3.06
  16  0.486  0.497  0.514-  39 2.71  20 2.95  22 2.98  37 2.99  36 3.06
  17  0.482  0.746  0.980-  13 2.99  11 2.99
  18  0.957  0.751  0.460-  14 2.96  12 2.99
  19  0.989  0.248  0.974-  15 2.99   9 2.99
  20  0.436  0.254  0.475-  16 2.95  10 3.01
  21  0.049  0.748  0.030-  15 2.95   9 2.96
  22  0.524  0.748  0.522-  16 2.98  10 3.03
  23  0.541  0.249  0.045-  13 2.93  11 3.00
  24  0.006  0.254  0.532-  14 2.97  12 3.00
  25  0.264  0.467  0.954-  13 3.00  15 3.05
  26  0.946  0.531  0.740-  14 2.96  15 3.06
  27  0.540  0.030  0.753-  11 2.97  10 2.99
  28  0.048  0.028  0.253-   9 3.00  12 3.00
  29  0.757  0.978  0.037-   9 2.96  11 3.01
  30  0.246  0.964  0.551-  12 2.99  10 3.02
  31  0.253  0.029  0.947-  11 2.95   9 3.01
  32  0.741  0.041  0.454-  10 3.00  12 3.02
  33  0.444  0.969  0.248-  10 2.99  11 3.02
  34  0.955  0.963  0.748-  12 2.98   9 2.99
  35  0.766  0.541  0.045-  13 2.96  15 2.98
  36  0.231  0.537  0.546-  14 2.86  16 3.06
  37  0.562  0.465  0.760-  13 2.91  16 2.99
  38  0.060  0.468  0.248-  15 3.00  14 3.05
  39  0.629  0.489  0.337-  16 2.71


IMPORTANT INFORMATION: All symmetrisations will be switched off!
NOSYMM: (Re-)initialisation of all symmetry stuff for point group C_1.



 KPOINTS: 1x1x1                                   

Automatic generation of k-mesh.
Space group operators:
 irot       det(A)        alpha          n_x          n_y          n_z        tau_x        tau_y        tau_z
    1     1.000000     0.000001     1.000000     0.000000     0.000000     0.000000     0.000000     0.000000
 
 Subroutine IBZKPT returns following result:
 ===========================================
 
 Found      8 irreducible k-points:
 
 Following reciprocal coordinates:
            Coordinates               Weight
  0.000000  0.000000  0.000000      1.000000
  0.500000  0.000000  0.000000      1.000000
  0.000000  0.500000  0.000000      1.000000
  0.500000  0.500000  0.000000      1.000000
  0.000000  0.000000  0.500000      1.000000
  0.500000  0.000000  0.500000      1.000000
  0.000000  0.500000  0.500000      1.000000
  0.500000  0.500000  0.500000      1.000000
 
 Following cartesian coordinates:
            Coordinates               Weight
 -0.000000  0.000000  0.000000      1.000000
  0.029563  0.000000  0.031093      1.000000
 -0.000000  0.042626  0.000000      1.000000
  0.029563  0.042626  0.031093      1.000000
 -0.029563  0.000000  0.031093      1.000000
  0.000000  0.000000  0.062187      1.000000
 -0.029563  0.042626  0.031093      1.000000
  0.000000  0.042626  0.062187      1.000000
 


--------------------------------------------------------------------------------------------------------




 Dimension of arrays:
   k-points           NKPTS =      8   k-points in BZ     NKDIM =      8   number of bands    NBANDS=    208
   number of dos      NEDOS =    301   number of ions     NIONS =     39
   non local maximal  LDIM  =      6   non local SUM 2l+1 LMDIM =     18
   total plane-waves  NPLWV = 343000
   max r-space proj   IRMAX =   5734   max aug-charges    IRDMAX=  91523
   dimension x,y,z NGX =    70 NGY =   70 NGZ =   70
   dimension x,y,z NGXF=   140 NGYF=  140 NGZF=  140
   support grid    NGXF=   280 NGYF=  280 NGZF=  280
   ions per type =               8   8  23
   NGX,Y,Z   is equivalent  to a cutoff of   9.97,  9.92,  9.97 a.u.
   NGXF,Y,Z  is equivalent  to a cutoff of  19.95, 19.84, 19.95 a.u.

 SYSTEM =  CsPbBr3 cubic bulk                      
 POSCAR =  Cs8 Pb8 Br23                            

 Startparameter for this run:
   NWRITE =      2    write-flag & timer
   PREC   = accura    normal or accurate (medium, high low for compatibility)
   ISTART =      0    job   : 0-new  1-cont  2-samecut
   ICHARG =      2    charge: 1-file 2-atom 10-const
   ISPIN  =      1    spin polarized calculation?
   LNONCOLLINEAR =      F non collinear calculations
   LSORBIT =      F    spin-orbit coupling
   INIWAV =      1    electr: 0-lowe 1-rand  2-diag
   LASPH  =      T    aspherical Exc in radial PAW
   METAGGA=      F    non-selfconsistent MetaGGA calc.

 Electronic Relaxation 1
   ENCUT  =  300.0 eV  22.05 Ry    4.70 a.u.  16.48 16.57 16.48*2*pi/ulx,y,z
   ENINI  =  300.0     initial cutoff
   ENAUG  =  503.9 eV  augmentation charge cutoff
   NELM   =    200;   NELMIN=  2; NELMDL= -5     # of ELM steps 
   EDIFF  = 0.1E-05   stopping-criterion for ELM
   LREAL  =      T    real-space projection
   NLSPLINE    = F    spline interpolate recip. space projectors
   LCOMPAT=      F    compatible to vasp.4.4
   GGA_COMPAT  = T    GGA compatible to vasp.4.4-vasp.4.6
   LMAXPAW     = -100 max onsite density
   LMAXMIX     =    2 max onsite mixed and CHGCAR
   VOSKOWN=      0    Vosko Wilk Nusair interpolation
   ROPT   =   -0.00025  -0.00025  -0.00025
 Ionic relaxation
   EDIFFG = -.1E-01   stopping-criterion for IOM
   NSW    =      0    number of steps for IOM
   NBLOCK =      1;   KBLOCK =      1    inner block; outer block 
   IBRION =     -1    ionic relax: 0-MD 1-quasi-New 2-CG
   NFREE  =      1    steps in history (QN), initial steepest desc. (CG)
   ISIF   =      2    stress and relaxation
   IWAVPR =     10    prediction:  0-non 1-charg 2-wave 3-comb
   ISYM   =      0    0-nonsym 1-usesym 2-fastsym
   LCORR  =      T    Harris-Foulkes like correction to forces

   POTIM  = 0.5000    time-step for ionic-motion
   TEIN   =    0.0    initial temperature
   TEBEG  =    0.0;   TEEND  =   0.0 temperature during run
   SMASS  =  -3.00    Nose mass-parameter (am)
   estimated Nose-frequenzy (Omega)   =  0.10E-29 period in steps =****** mass=  -0.311E-26a.u.
   SCALEE = 1.0000    scale energy and forces
   NPACO  =    256;   APACO  = 16.0  distance and # of slots for P.C.
   PSTRESS=    0.0 pullay stress

  Mass of Ions in am
   POMASS = 132.90207.20 79.90
  Ionic Valenz
   ZVAL   =   9.00 14.00  7.00
  Atomic Wigner-Seitz radii
   RWIGS  =  -1.00 -1.00 -1.00
  virtual crystal weights 
   VCA    =   1.00  1.00  1.00
   NELECT =     344.0000    total number of electrons
   NUPDOWN=       0.0000    fix difference up-down

 DOS related values:
   EMIN   =  10.00;   EMAX   =-10.00  energy-range for DOS
   EFERMI =   0.00
   ISMEAR =     0;   SIGMA  =   0.01  broadening in eV -4-tet -1-fermi 0-gaus

 Electronic relaxation 2 (details)
   IALGO  =     38    algorithm
   LDIAG  =      T    sub-space diagonalisation (order eigenvalues)
   LSUBROT=      F    optimize rotation matrix (better conditioning)
   TURBO    =      0    0=normal 1=particle mesh
   IRESTART =      0    0=no restart 2=restart with 2 vectors
   NREBOOT  =      0    no. of reboots
   NMIN     =      0    reboot dimension
   EREF     =   0.00    reference energy to select bands
   IMIX   =      4    mixing-type and parameters
     AMIX     =   0.40;   BMIX     =  1.00
     AMIX_MAG =   1.60;   BMIX_MAG =  1.00
     AMIN     =   0.10
     WC   =   100.;   INIMIX=   1;  MIXPRE=   1;  MAXMIX= -45

 Intra band minimization:
   WEIMIN = 0.0000     energy-eigenvalue tresh-hold
   EBREAK =  0.12E-08  absolut break condition
   DEPER  =   0.30     relativ break condition  

   TIME   =   0.40     timestep for ELM

  volume/ion in A,a.u.               =      40.90       276.00
  Fermi-wavevector in a.u.,A,eV,Ry     =   0.981747  1.855232 13.113654  0.963826
  Thomas-Fermi vector in A             =   2.112777

 Write flags
   LWAVE        =      F    write WAVECAR
   LDOWNSAMPLE  =      F    k-point downsampling of WAVECAR
   LCHARG       =      F    write CHGCAR
   LVTOT        =      F    write LOCPOT, total local potential
   LVHAR        =      T    write LOCPOT, Hartree potential only
   LELF         =      F    write electronic localiz. function (ELF)
   LORBIT       =     10    0 simple, 1 ext, 2 COOP (PROOUT), +10 PAW based schemes


 Dipole corrections
   LMONO  =      F    monopole corrections only (constant potential shift)
   LDIPOL =      F    correct potential (dipole corrections)
   IDIPOL =      0    1-x, 2-y, 3-z, 4-all directions 
   EPSILON=  1.0000000 bulk dielectric constant

 Exchange correlation treatment:
   GGA     =    --    GGA type
   LEXCH   =     8    internal setting for exchange type
   VOSKOWN=      0    Vosko Wilk Nusair interpolation
   LHFCALC =     F    Hartree Fock is set to
   LHFONE  =     F    Hartree Fock one center treatment
   AEXX    =    0.0000 exact exchange contribution

 Linear response parameters
   LEPSILON=     F    determine dielectric tensor
   LRPA    =     F    only Hartree local field effects (RPA)
   LNABLA  =     F    use nabla operator in PAW spheres
   LVEL    =     F    velocity operator in full k-point grid
   LINTERFAST=   F  fast interpolation
   KINTER  =     0    interpolate to denser k-point grid
   CSHIFT  =0.1000    complex shift for real part using Kramers Kronig
   OMEGAMAX=  -1.0    maximum frequency
   DEG_THRESHOLD= 0.2000000E-02 threshold for treating states as degnerate
   RTIME   =   -0.100 relaxation time in fs
  (WPLASMAI=    0.000 imaginary part of plasma frequency in eV, 0.658/RTIME)
   DFIELD  = 0.0000000 0.0000000 0.0000000 field for delta impulse in time

 Orbital magnetization related:
   ORBITALMAG=     F  switch on orbital magnetization
   LCHIMAG   =     F  perturbation theory with respect to B field
   DQ        =  0.001000  dq finite difference perturbation B field
   LLRAUG    =     F  two centre corrections for induced B field



--------------------------------------------------------------------------------------------------------


 Static calculation
 charge density and potential will be updated during run
 non-spin polarized calculation
 Variant of blocked Davidson
 Davidson routine will perform the subspace rotation
 perform sub-space diagonalisation
    after iterative eigenvector-optimisation
 modified Broyden-mixing scheme, WC =      100.0
 initial mixing is a Kerker type mixing with AMIX =  0.4000 and BMIX =      1.0000
 Hartree-type preconditioning will be used
 using additional bands           36
 real space projection scheme for non local part
 use partial core corrections
 calculate Harris-corrections to forces   (improved forces if not selfconsistent)
 use gradient corrections 
 use of overlap-Matrix (Vanderbilt PP)
 Gauss-broadening in eV      SIGMA  =   0.01


--------------------------------------------------------------------------------------------------------


  energy-cutoff  :      300.00
  volume of cell :     1595.09
      direct lattice vectors                 reciprocal lattice vectors
     8.456489000  0.000000000  8.040301000     0.059126193 -0.000000000  0.062186727
     0.000000000 11.729847000  0.000000000     0.000000000  0.085252604 -0.000000000
    -8.456489000  0.000000000  8.040301000    -0.059126193  0.000000000  0.062186727

  length of vectors
    11.668703715 11.729847000 11.668703715     0.085808482  0.085252604  0.085808482



 k-points in units of 2pi/SCALE and weight: 1x1x1                                   
  -0.00000000  0.00000000  0.00000000       0.125
   0.02956310  0.00000000  0.03109336       0.125
  -0.00000000  0.04262630  0.00000000       0.125
   0.02956310  0.04262630  0.03109336       0.125
  -0.02956310  0.00000000  0.03109336       0.125
   0.00000000  0.00000000  0.06218673       0.125
  -0.02956310  0.04262630  0.03109336       0.125
   0.00000000  0.04262630  0.06218673       0.125

 k-points in reciprocal lattice and weights: 1x1x1                                   
   0.00000000  0.00000000  0.00000000       0.125
   0.50000000  0.00000000  0.00000000       0.125
   0.00000000  0.50000000  0.00000000       0.125
   0.50000000  0.50000000  0.00000000       0.125
   0.00000000  0.00000000  0.50000000       0.125
   0.50000000  0.00000000  0.50000000       0.125
   0.00000000  0.50000000  0.50000000       0.125
   0.50000000  0.50000000  0.50000000       0.125

 position of ions in fractional coordinates (direct lattice) 
   0.26587500  0.23810200  0.19657800
   0.77426600  0.23051300  0.73911400
   0.70887100  0.77509600  0.26107200
   0.22343200  0.75174900  0.77763700
   0.26239700  0.24486700  0.72945000
   0.80712700  0.24845000  0.22793400
   0.72855400  0.75587600  0.78690900
   0.22263500  0.75762100  0.29795700
   0.00591100  0.99492500  0.00025900
   0.49311000  0.00424500  0.49951600
   0.50075400  0.99965200  0.00052600
   0.99431500  0.00008300  0.50043100
   0.51796600  0.49433600  0.00177700
   0.99164600  0.50364900  0.49445800
   0.01118900  0.50107400  0.99600200
   0.48647600  0.49728400  0.51408000
   0.48226400  0.74597800  0.98015800
   0.95653200  0.75102500  0.45971400
   0.98870900  0.24835900  0.97378000
   0.43571500  0.25364500  0.47487900
   0.04944200  0.74797700  0.03046600
   0.52423200  0.74827300  0.52174900
   0.54056600  0.24881600  0.04483400
   0.00570400  0.25362200  0.53233200
   0.26447400  0.46732700  0.95355900
   0.94609200  0.53053700  0.74029000
   0.53978900  0.02980600  0.75262200
   0.04850000  0.02834500  0.25336000
   0.75733900  0.97817900  0.03699800
   0.24550100  0.96406500  0.55093500
   0.25292500  0.02900200  0.94715700
   0.74066400  0.04126000  0.45381500
   0.44359800  0.96911000  0.24816100
   0.95529800  0.96312600  0.74830000
   0.76599100  0.54079800  0.04458700
   0.23123000  0.53702200  0.54639800
   0.56155200  0.46483700  0.76034300
   0.06031500  0.46815600  0.24845000
   0.62860700  0.48854600  0.33711200

 position of ions in cartesian coordinates  (Angst):
   0.58600932  2.79290003  3.71826132
   0.29726250  2.70388222 12.16803073
   3.78680732  9.09175749  7.79863367
  -4.68662849  8.81790075  8.04889608
  -3.94962856  2.87225245  7.97474843
   4.89793923  2.91428049  8.32220199
  -0.49347842  8.86630983 12.18477867
  -0.63695966  8.88677841  4.18571638
   0.04779608 11.67031803  0.04960866
  -0.05417227  0.04979320  7.98101182
   4.23017258 11.72576501  4.03044209
   4.17652461  0.00097358 12.01820776
   4.36514660  5.79848565  4.17889016
   4.20446485  5.90772571 11.94872348
  -8.32806030  5.87752136  8.09811880
  -0.23343292  5.83306524  8.04477141
  -4.21043513  8.75020781 11.75831307
   4.20133595  8.80940834 11.38704413
   0.12624692  2.91321307 15.77900227
  -0.33118994  2.97521704  7.32144985
   0.16047034  8.77365577  0.64248437
   0.02099746  8.77712780  8.41000208
   4.19215220  2.91857361  4.70679221
  -4.45342389  2.97494726  4.32597139
  -5.82723972  5.48167421  9.79335195
   1.74036235  6.22311784 13.55901888
  -1.79981992  0.34961982 10.39137346
  -1.73239634  0.33248251  2.42704526
   6.09155574 11.47389001  6.38670858
  -2.58289926 11.30833495  6.40358517
  -5.87076527  0.34018902  9.64902050
   2.42573541  0.48397349  9.60397070
   1.65271084 11.36751203  5.56195058
   1.75047631 11.29732062 13.69744070
   6.10054499  6.34347780  6.51729110
  -2.66521473  6.29918590  6.25236319
  -1.68107390  5.45246689 10.62843369
  -1.59096156  5.49139825  2.48256354
   2.46502426  5.73056983  7.76467144



--------------------------------------------------------------------------------------------------------


 k-point  1 :   0.0000 0.0000 0.0000  plane waves:   18809
 k-point  2 :   0.5000 0.0000 0.0000  plane waves:   18808
 k-point  3 :   0.0000 0.5000 0.0000  plane waves:   18794
 k-point  4 :   0.5000 0.5000 0.0000  plane waves:   18804
 k-point  5 :   0.0000 0.0000 0.5000  plane waves:   18808
 k-point  6 :   0.5000 0.0000 0.5000  plane waves:   18790
 k-point  7 :   0.0000 0.5000 0.5000  plane waves:   18804
 k-point  8 :   0.5000 0.5000 0.5000  plane waves:   18800

 maximum and minimum number of plane-waves per node :      2389     2304

 maximum number of plane-waves:     18809
 maximum index in each direction: 
   IXMAX=   16   IYMAX=   16   IZMAX=   16
   IXMIN=  -16   IYMIN=  -17   IZMIN=  -16


 real space projection operators:
  total allocation   :      16733.08 KBytes
  max/ min on nodes  :       2199.52       1811.06


 parallel 3D FFT for wavefunctions:
    minimum data exchange during FFTs selected (reduces bandwidth)
 parallel 3D FFT for charge:
    minimum data exchange during FFTs selected (reduces bandwidth)


 total amount of memory used by VASP MPI-rank0    60650. kBytes
=======================================================================

   base      :      30000. kBytes
   nonlr-proj:       6485. kBytes
   fftplans  :       8423. kBytes
   grid      :       7465. kBytes
   one-center:         77. kBytes
   wavefun   :       8200. kBytes

     INWAV:  cpu time    0.0000: real time    0.0000
 Broyden mixing: mesh for mixing (old mesh)
   NGX = 33   NGY = 33   NGZ = 33
  (NGX  =140   NGY  =140   NGZ  =140)
  gives a total of  35937 points

 initial charge density was supplied:
 charge density of overlapping atoms calculated
 number of electron     345.0000000 magnetization 
 keeping initial charge density in first step


--------------------------------------------------------------------------------------------------------


 Maximum index for non-local projection operator          729
 Maximum index for augmentation-charges         3314 (set IRDMAX)


--------------------------------------------------------------------------------------------------------


 First call to EWALD:  gamma=   0.152
 Maximum number of real-space cells 3x 3x 3
 Maximum number of reciprocal cells 3x 3x 3

    FEWALD:  cpu time    0.0039: real time    0.0039


--------------------------------------- Iteration      1(   1)  ---------------------------------------


    POTLOK:  cpu time    0.2588: real time    0.2629
    SETDIJ:  cpu time    1.2031: real time    1.2031
     EDDAV:  cpu time   16.4185: real time   16.4239
       DOS:  cpu time    0.0008: real time    0.0008
    --------------------------------------------
      LOOP:  cpu time   17.8812: real time   17.8907

 eigenvalue-minimisations  :  3440
 total energy-change (2. order) : 0.1331580E+04  (-0.1105652E+05)
 number of electron     345.0000000 magnetization 
 augmentation part      345.0000000 magnetization 

 Free energy of the ion-electron system (eV)
  ---------------------------------------------------
  alpha Z        PSCENC =       872.70583573
  Ewald energy   TEWEN  =    -17934.36381156
  -Hartree energ DENC   =     -7423.00201469
  -exchange      EXHF   =         0.00000000
  -V(xc)+E(xc)   XCENC  =       908.09734016
  PAW double counting   =     21345.28103884   -22405.85761495
  entropy T*S    EENTRO =        -0.00067595
  eigenvalues    EBANDS =      -243.39910927
  atomic energy  EATOM  =     26212.11861568
  Solvation  Ediel_sol  =         0.00000000
  ---------------------------------------------------
  free energy    TOTEN  =      1331.57960398 eV

  energy without entropy =     1331.58027994  energy(sigma->0) =     1331.57994196


--------------------------------------------------------------------------------------------------------




--------------------------------------- Iteration      1(   2)  ---------------------------------------


     EDDAV:  cpu time   18.4302: real time   18.4451
       DOS:  cpu time    0.0005: real time    0.0005
    --------------------------------------------
      LOOP:  cpu time   18.4307: real time   18.4455

 eigenvalue-minimisations  :  4112
 total energy-change (2. order) :-0.2445227E+04  (-0.2359360E+04)
 number of electron     345.0000000 magnetization 
 augmentation part      345.0000000 magnetization 

 Free energy of the ion-electron system (eV)
  ---------------------------------------------------
  alpha Z        PSCENC =       872.70583573
  Ewald energy   TEWEN  =    -17934.36381156
  -Hartree energ DENC   =     -7423.00201469
  -exchange      EXHF   =         0.00000000
  -V(xc)+E(xc)   XCENC  =       908.09734016
  PAW double counting   =     21345.28103884   -22405.85761495
  entropy T*S    EENTRO =        -0.00000000
  eigenvalues    EBANDS =     -2688.62659073
  atomic energy  EATOM  =     26212.11861568
  Solvation  Ediel_sol  =         0.00000000
  ---------------------------------------------------
  free energy    TOTEN  =     -1113.64720152 eV

  energy without entropy =    -1113.64720152  energy(sigma->0) =    -1113.64720152


--------------------------------------------------------------------------------------------------------




--------------------------------------- Iteration      1(   3)  ---------------------------------------


     EDDAV:  cpu time   19.2804: real time   19.3550
       DOS:  cpu time    0.0004: real time    0.0004
    --------------------------------------------
      LOOP:  cpu time   19.2808: real time   19.3553

 eigenvalue-minimisations  :  4432
 total energy-change (2. order) :-0.3613518E+03  (-0.3594055E+03)
 number of electron     345.0000000 magnetization 
 augmentation part      345.0000000 magnetization 

 Free energy of the ion-electron system (eV)
  ---------------------------------------------------
  alpha Z        PSCENC =       872.70583573
  Ewald energy   TEWEN  =    -17934.36381156
  -Hartree energ DENC   =     -7423.00201469
  -exchange      EXHF   =         0.00000000
  -V(xc)+E(xc)   XCENC  =       908.09734016
  PAW double counting   =     21345.28103884   -22405.85761495
  entropy T*S    EENTRO =        -0.00000000
  eigenvalues    EBANDS =     -3049.97835983
  atomic energy  EATOM  =     26212.11861568
  Solvation  Ediel_sol  =         0.00000000
  ---------------------------------------------------
  free energy    TOTEN  =     -1474.99897061 eV

  energy without entropy =    -1474.99897061  energy(sigma->0) =    -1474.99897061


--------------------------------------------------------------------------------------------------------




--------------------------------------- Iteration      1(   4)  ---------------------------------------


     EDDAV:  cpu time   17.9242: real time   17.9323
       DOS:  cpu time    0.0004: real time    0.0004
    --------------------------------------------
      LOOP:  cpu time   17.9246: real time   17.9327

 eigenvalue-minimisations  :  3944
 total energy-change (2. order) :-0.1189069E+02  (-0.1185893E+02)
 number of electron     345.0000000 magnetization 
 augmentation part      345.0000000 magnetization 

 Free energy of the ion-electron system (eV)
  ---------------------------------------------------
  alpha Z        PSCENC =       872.70583573
  Ewald energy   TEWEN  =    -17934.36381156
  -Hartree energ DENC   =     -7423.00201469
  -exchange      EXHF   =         0.00000000
  -V(xc)+E(xc)   XCENC  =       908.09734016
  PAW double counting   =     21345.28103884   -22405.85761495
  entropy T*S    EENTRO =        -0.00000000
  eigenvalues    EBANDS =     -3061.86904539
  atomic energy  EATOM  =     26212.11861568
  Solvation  Ediel_sol  =         0.00000000
  ---------------------------------------------------
  free energy    TOTEN  =     -1486.88965618 eV

  energy without entropy =    -1486.88965618  energy(sigma->0) =    -1486.88965618


--------------------------------------------------------------------------------------------------------




--------------------------------------- Iteration      1(   5)  ---------------------------------------


     EDDAV:  cpu time   19.2389: real time   19.2656
       DOS:  cpu time    0.0004: real time    0.0004
    CHARGE:  cpu time    2.7176: real time    2.7177
    MIXING:  cpu time    0.0014: real time    0.0014
    --------------------------------------------
      LOOP:  cpu time   21.9583: real time   21.9851

 eigenvalue-minimisations  :  4408
 total energy-change (2. order) :-0.5317471E+00  (-0.5315056E+00)
 number of electron     343.9999999 magnetization 
 augmentation part       -5.0427385 magnetization 

 Broyden mixing:
  rms(total) = 0.10092E+01    rms(broyden)= 0.10086E+01
  rms(prec ) = 0.13973E+01
  weight for this iteration     100.00

 Free energy of the ion-electron system (eV)
  ---------------------------------------------------
  alpha Z        PSCENC =       872.70583573
  Ewald energy   TEWEN  =    -17934.36381156
  -Hartree energ DENC   =     -7423.00201469
  -exchange      EXHF   =         0.00000000
  -V(xc)+E(xc)   XCENC  =       908.09734016
  PAW double counting   =     21345.28103884   -22405.85761495
  entropy T*S    EENTRO =        -0.00000000
  eigenvalues    EBANDS =     -3062.40079252
  atomic energy  EATOM  =     26212.11861568
  Solvation  Ediel_sol  =         0.00000000
  ---------------------------------------------------
  free energy    TOTEN  =     -1487.42140331 eV

  energy without entropy =    -1487.42140331  energy(sigma->0) =    -1487.42140331


--------------------------------------------------------------------------------------------------------




--------------------------------------- Iteration      1(   6)  ---------------------------------------


    POTLOK:  cpu time    0.2540: real time    0.3124
    SETDIJ:  cpu time    1.2029: real time    1.2029
     EDDAV:  cpu time   19.0137: real time   19.0146
       DOS:  cpu time    0.0005: real time    0.0005
    CHARGE:  cpu time    2.7035: real time    2.7036
    MIXING:  cpu time    0.0019: real time    0.0019
    --------------------------------------------
      LOOP:  cpu time   23.1764: real time   23.2360

 eigenvalue-minimisations  :  4328
 total energy-change (2. order) : 0.7769691E+02  (-0.2360093E+01)
 number of electron     343.9999999 magnetization 
 augmentation part       -3.6503510 magnetization 

 Broyden mixing:
  rms(total) = 0.72086E+00    rms(broyden)= 0.72077E+00
  rms(prec ) = 0.90146E+00
  weight for this iteration     100.00

 eigenvalues of (default mixing * dielectric matrix)
  average eigenvalue GAMMA=   1.1878
  1.1878

 Free energy of the ion-electron system (eV)
  ---------------------------------------------------
  alpha Z        PSCENC =       872.70583573
  Ewald energy   TEWEN  =    -17934.36381156
  -Hartree energ DENC   =     -7403.42278903
  -exchange      EXHF   =         0.00000000
  -V(xc)+E(xc)   XCENC  =       936.09683513
  PAW double counting   =     21627.68121565   -22686.38751096
  entropy T*S    EENTRO =        -0.00000000
  eigenvalues    EBANDS =     -3034.15288106
  atomic energy  EATOM  =     26212.11861568
  Solvation  Ediel_sol  =         0.00000000
  ---------------------------------------------------
  free energy    TOTEN  =     -1409.72449042 eV

  energy without entropy =    -1409.72449042  energy(sigma->0) =    -1409.72449042


--------------------------------------------------------------------------------------------------------




--------------------------------------- Iteration      1(   7)  ---------------------------------------


    POTLOK:  cpu time    0.3045: real time    0.3064
    SETDIJ:  cpu time    1.1996: real time    1.1997
     EDDAV:  cpu time   18.1535: real time   18.1544
       DOS:  cpu time    0.0004: real time    0.0004
    CHARGE:  cpu time    2.7014: real time    2.7015
    MIXING:  cpu time    0.0016: real time    0.0016
    --------------------------------------------
      LOOP:  cpu time   22.3610: real time   22.3640

 eigenvalue-minimisations  :  4032
 total energy-change (2. order) : 0.5094853E+00  (-0.8577659E+00)
 number of electron     343.9999999 magnetization 
 augmentation part       -3.0924631 magnetization 

 Broyden mixing:
  rms(total) = 0.37086E+00    rms(broyden)= 0.37084E+00
  rms(prec ) = 0.41325E+00
  weight for this iteration     100.00

 eigenvalues of (default mixing * dielectric matrix)
  average eigenvalue GAMMA=   1.3028
  1.3028  1.3028

 Free energy of the ion-electron system (eV)
  ---------------------------------------------------
  alpha Z        PSCENC =       872.70583573
  Ewald energy   TEWEN  =    -17934.36381156
  -Hartree energ DENC   =     -7445.11656411
  -exchange      EXHF   =         0.00000000
  -V(xc)+E(xc)   XCENC  =       941.11339637
  PAW double counting   =     22238.48884533   -23295.23520895
  entropy T*S    EENTRO =        -0.00000000
  eigenvalues    EBANDS =     -2998.92611365
  atomic energy  EATOM  =     26212.11861568
  Solvation  Ediel_sol  =         0.00000000
  ---------------------------------------------------
  free energy    TOTEN  =     -1409.21500514 eV

  energy without entropy =    -1409.21500514  energy(sigma->0) =    -1409.21500514


--------------------------------------------------------------------------------------------------------




--------------------------------------- Iteration      1(   8)  ---------------------------------------


    POTLOK:  cpu time    0.2599: real time    0.3103
    SETDIJ:  cpu time    1.2011: real time    1.2012
     EDDAV:  cpu time   18.1681: real time   18.1689
       DOS:  cpu time    0.0006: real time    0.0006
    CHARGE:  cpu time    2.7011: real time    2.7012
    MIXING:  cpu time    0.0015: real time    0.0015
    --------------------------------------------
      LOOP:  cpu time   22.3323: real time   22.3837

 eigenvalue-minimisations  :  4040
 total energy-change (2. order) :-0.1770867E+00  (-0.4461604E-01)
 number of electron     343.9999999 magnetization 
 augmentation part       -3.1816925 magnetization 

 Broyden mixing:
  rms(total) = 0.21605E+00    rms(broyden)= 0.21604E+00
  rms(prec ) = 0.24524E+00
  weight for this iteration     100.00

 eigenvalues of (default mixing * dielectric matrix)
  average eigenvalue GAMMA=   1.6910
  1.1361  1.2880  2.6488

 Free energy of the ion-electron system (eV)
  ---------------------------------------------------
  alpha Z        PSCENC =       872.70583573
  Ewald energy   TEWEN  =    -17934.36381156
  -Hartree energ DENC   =     -7451.12928646
  -exchange      EXHF   =         0.00000000
  -V(xc)+E(xc)   XCENC  =       941.82847479
  PAW double counting   =     22469.98259884   -23527.09223986
  entropy T*S    EENTRO =        -0.00000000
  eigenvalues    EBANDS =     -2993.44227896
  atomic energy  EATOM  =     26212.11861568
  Solvation  Ediel_sol  =         0.00000000
  ---------------------------------------------------
  free energy    TOTEN  =     -1409.39209180 eV

  energy without entropy =    -1409.39209180  energy(sigma->0) =    -1409.39209180


--------------------------------------------------------------------------------------------------------




--------------------------------------- Iteration      1(   9)  ---------------------------------------


    POTLOK:  cpu time    0.3058: real time    0.3171
    SETDIJ:  cpu time    1.2029: real time    1.2030
     EDDAV:  cpu time   17.1745: real time   17.1754
       DOS:  cpu time    0.0004: real time    0.0004
    CHARGE:  cpu time    2.7089: real time    2.7090
    MIXING:  cpu time    0.0015: real time    0.0015
    --------------------------------------------
      LOOP:  cpu time   21.3940: real time   21.4064

 eigenvalue-minimisations  :  3688
 total energy-change (2. order) :-0.6822484E-01  (-0.1784246E-01)
 number of electron     343.9999999 magnetization 
 augmentation part       -3.2194211 magnetization 

 Broyden mixing:
  rms(total) = 0.45615E-01    rms(broyden)= 0.45611E-01
  rms(prec ) = 0.54737E-01
  weight for this iteration     100.00

 eigenvalues of (default mixing * dielectric matrix)
  average eigenvalue GAMMA=   1.4680
  2.5324  1.2466  1.2466  0.8461

 Free energy of the ion-electron system (eV)
  ---------------------------------------------------
  alpha Z        PSCENC =       872.70583573
  Ewald energy   TEWEN  =    -17934.36381156
  -Hartree energ DENC   =     -7458.22277787
  -exchange      EXHF   =         0.00000000
  -V(xc)+E(xc)   XCENC  =       943.74631683
  PAW double counting   =     22804.01708999   -23861.93854557
  entropy T*S    EENTRO =        -0.00000000
  eigenvalues    EBANDS =     -2987.52303988
  atomic energy  EATOM  =     26212.11861568
  Solvation  Ediel_sol  =         0.00000000
  ---------------------------------------------------
  free energy    TOTEN  =     -1409.46031664 eV

  energy without entropy =    -1409.46031664  energy(sigma->0) =    -1409.46031664


--------------------------------------------------------------------------------------------------------




--------------------------------------- Iteration      1(  10)  ---------------------------------------


    POTLOK:  cpu time    0.2841: real time    0.3135
    SETDIJ:  cpu time    1.2018: real time    1.2018
     EDDAV:  cpu time   19.2986: real time   19.2994
       DOS:  cpu time    0.0004: real time    0.0004
    CHARGE:  cpu time    2.7069: real time    2.7070
    MIXING:  cpu time    0.0016: real time    0.0016
    --------------------------------------------
      LOOP:  cpu time   23.4934: real time   23.5237

 eigenvalue-minimisations  :  4432
 total energy-change (2. order) :-0.3705224E-02  (-0.2517502E-02)
 number of electron     343.9999999 magnetization 
 augmentation part       -3.2070856 magnetization 

 Broyden mixing:
  rms(total) = 0.32872E-01    rms(broyden)= 0.32870E-01
  rms(prec ) = 0.41104E-01
  weight for this iteration     100.00

 eigenvalues of (default mixing * dielectric matrix)
  average eigenvalue GAMMA=   1.2945
  2.4343  1.3081  1.3081  0.8371  0.5852

 Free energy of the ion-electron system (eV)
  ---------------------------------------------------
  alpha Z        PSCENC =       872.70583573
  Ewald energy   TEWEN  =    -17934.36381156
  -Hartree energ DENC   =     -7456.55990336
  -exchange      EXHF   =         0.00000000
  -V(xc)+E(xc)   XCENC  =       943.60015684
  PAW double counting   =     22774.81638222   -23832.80189496
  entropy T*S    EENTRO =        -0.00000000
  eigenvalues    EBANDS =     -2988.97940245
  atomic energy  EATOM  =     26212.11861568
  Solvation  Ediel_sol  =         0.00000000
  ---------------------------------------------------
  free energy    TOTEN  =     -1409.46402186 eV

  energy without entropy =    -1409.46402186  energy(sigma->0) =    -1409.46402186


--------------------------------------------------------------------------------------------------------




--------------------------------------- Iteration      1(  11)  ---------------------------------------


    POTLOK:  cpu time    0.2945: real time    0.3081
    SETDIJ:  cpu time    1.1991: real time    1.1992
     EDDAV:  cpu time   17.2313: real time   17.2320
       DOS:  cpu time    0.0004: real time    0.0004
    CHARGE:  cpu time    2.7164: real time    2.7165
    MIXING:  cpu time    0.0019: real time    0.0019
    --------------------------------------------
      LOOP:  cpu time   21.4436: real time   21.4580

 eigenvalue-minimisations  :  3712
 total energy-change (2. order) :-0.1576061E-02  (-0.2460875E-03)
 number of electron     343.9999999 magnetization 
 augmentation part       -3.2059162 magnetization 

 Broyden mixing:
  rms(total) = 0.16995E-01    rms(broyden)= 0.16995E-01
  rms(prec ) = 0.24598E-01
  weight for this iteration     100.00

 eigenvalues of (default mixing * dielectric matrix)
  average eigenvalue GAMMA=   1.5996
  2.7510  2.7510  1.2003  1.2003  0.8475  0.8475

 Free energy of the ion-electron system (eV)
  ---------------------------------------------------
  alpha Z        PSCENC =       872.70583573
  Ewald energy   TEWEN  =    -17934.36381156
  -Hartree energ DENC   =     -7455.34525756
  -exchange      EXHF   =         0.00000000
  -V(xc)+E(xc)   XCENC  =       943.54349477
  PAW double counting   =     22760.24720879   -23818.39298516
  entropy T*S    EENTRO =        -0.00000000
  eigenvalues    EBANDS =     -2989.97869861
  atomic energy  EATOM  =     26212.11861568
  Solvation  Ediel_sol  =         0.00000000
  ---------------------------------------------------
  free energy    TOTEN  =     -1409.46559792 eV

  energy without entropy =    -1409.46559792  energy(sigma->0) =    -1409.46559792


--------------------------------------------------------------------------------------------------------




--------------------------------------- Iteration      1(  12)  ---------------------------------------


    POTLOK:  cpu time    0.2847: real time    0.3213
    SETDIJ:  cpu time    1.1977: real time    1.1978
     EDDAV:  cpu time   16.8534: real time   16.8541
       DOS:  cpu time    0.0005: real time    0.0005
    CHARGE:  cpu time    2.7154: real time    2.7155
    MIXING:  cpu time    0.0017: real time    0.0017
    --------------------------------------------
      LOOP:  cpu time   21.0534: real time   21.0908

 eigenvalue-minimisations  :  3584
 total energy-change (2. order) :-0.2789827E-02  (-0.5695240E-03)
 number of electron     343.9999999 magnetization 
 augmentation part       -3.2089749 magnetization 

 Broyden mixing:
  rms(total) = 0.10269E-01    rms(broyden)= 0.10268E-01
  rms(prec ) = 0.13099E-01
  weight for this iteration     100.00

 eigenvalues of (default mixing * dielectric matrix)
  average eigenvalue GAMMA=   1.5517
  2.8116  2.8116  1.2586  1.2586  0.8770  0.9222  0.9222

 Free energy of the ion-electron system (eV)
  ---------------------------------------------------
  alpha Z        PSCENC =       872.70583573
  Ewald energy   TEWEN  =    -17934.36381156
  -Hartree energ DENC   =     -7454.35855810
  -exchange      EXHF   =         0.00000000
  -V(xc)+E(xc)   XCENC  =       943.57317821
  PAW double counting   =     22753.18909259   -23811.63749258
  entropy T*S    EENTRO =        -0.00000000
  eigenvalues    EBANDS =     -2990.69524773
  atomic energy  EATOM  =     26212.11861568
  Solvation  Ediel_sol  =         0.00000000
  ---------------------------------------------------
  free energy    TOTEN  =     -1409.46838775 eV

  energy without entropy =    -1409.46838775  energy(sigma->0) =    -1409.46838775


--------------------------------------------------------------------------------------------------------




--------------------------------------- Iteration      1(  13)  ---------------------------------------


    POTLOK:  cpu time    0.3051: real time    0.3208
    SETDIJ:  cpu time    1.2011: real time    1.2011
     EDDAV:  cpu time   19.4152: real time   19.4160
       DOS:  cpu time    0.0004: real time    0.0004
    CHARGE:  cpu time    2.7154: real time    2.7155
    MIXING:  cpu time    0.0019: real time    0.0019
    --------------------------------------------
      LOOP:  cpu time   23.6391: real time   23.6556

 eigenvalue-minimisations  :  4472
 total energy-change (2. order) : 0.3203176E-03  (-0.1313479E-03)
 number of electron     343.9999999 magnetization 
 augmentation part       -3.2101327 magnetization 

 Broyden mixing:
  rms(total) = 0.57414E-02    rms(broyden)= 0.57408E-02
  rms(prec ) = 0.69232E-02
  weight for this iteration     100.00

 eigenvalues of (default mixing * dielectric matrix)
  average eigenvalue GAMMA=   1.5289
  3.0575  2.5971  1.3630  1.3630  1.0707  1.0707  0.9406  0.7688

 Free energy of the ion-electron system (eV)
  ---------------------------------------------------
  alpha Z        PSCENC =       872.70583573
  Ewald energy   TEWEN  =    -17934.36381156
  -Hartree energ DENC   =     -7455.17042143
  -exchange      EXHF   =         0.00000000
  -V(xc)+E(xc)   XCENC  =       943.62263208
  PAW double counting   =     22752.40331142   -23810.81366521
  entropy T*S    EENTRO =        -0.00000000
  eigenvalues    EBANDS =     -2989.97056415
  atomic energy  EATOM  =     26212.11861568
  Solvation  Ediel_sol  =         0.00000000
  ---------------------------------------------------
  free energy    TOTEN  =     -1409.46806743 eV

  energy without entropy =    -1409.46806743  energy(sigma->0) =    -1409.46806743


--------------------------------------------------------------------------------------------------------




--------------------------------------- Iteration      1(  14)  ---------------------------------------


    POTLOK:  cpu time    0.2959: real time    0.3198
    SETDIJ:  cpu time    1.1980: real time    1.1980
     EDDAV:  cpu time   17.4106: real time   17.4114
       DOS:  cpu time    0.0004: real time    0.0004
    CHARGE:  cpu time    2.7152: real time    2.7153
    MIXING:  cpu time    0.0017: real time    0.0017
    --------------------------------------------
      LOOP:  cpu time   21.6218: real time   21.6467

 eigenvalue-minimisations  :  3776
 total energy-change (2. order) : 0.1175998E-03  (-0.4394490E-04)
 number of electron     343.9999999 magnetization 
 augmentation part       -3.2088742 magnetization 

 Broyden mixing:
  rms(total) = 0.23642E-02    rms(broyden)= 0.23632E-02
  rms(prec ) = 0.31850E-02
  weight for this iteration     100.00

 eigenvalues of (default mixing * dielectric matrix)
  average eigenvalue GAMMA=   1.5077
  3.2118  2.2713  1.7201  1.1733  1.1733  1.2138  1.0850  0.8603  0.8603

 Free energy of the ion-electron system (eV)
  ---------------------------------------------------
  alpha Z        PSCENC =       872.70583573
  Ewald energy   TEWEN  =    -17934.36381156
  -Hartree energ DENC   =     -7455.60486908
  -exchange      EXHF   =         0.00000000
  -V(xc)+E(xc)   XCENC  =       943.64983993
  PAW double counting   =     22753.76873982   -23812.15273014
  entropy T*S    EENTRO =        -0.00000000
  eigenvalues    EBANDS =     -2989.58957021
  atomic energy  EATOM  =     26212.11861568
  Solvation  Ediel_sol  =         0.00000000
  ---------------------------------------------------
  free energy    TOTEN  =     -1409.46794983 eV

  energy without entropy =    -1409.46794983  energy(sigma->0) =    -1409.46794983


--------------------------------------------------------------------------------------------------------




--------------------------------------- Iteration      1(  15)  ---------------------------------------


    POTLOK:  cpu time    0.2761: real time    0.3163
    SETDIJ:  cpu time    1.1996: real time    1.1996
     EDDAV:  cpu time   18.3597: real time   18.3605
       DOS:  cpu time    0.0006: real time    0.0006
    CHARGE:  cpu time    2.7163: real time    2.7164
    MIXING:  cpu time    0.0018: real time    0.0018
    --------------------------------------------
      LOOP:  cpu time   22.5541: real time   22.5952

 eigenvalue-minimisations  :  4104
 total energy-change (2. order) : 0.4453693E-05  (-0.3119252E-05)
 number of electron     343.9999999 magnetization 
 augmentation part       -3.2092970 magnetization 

 Broyden mixing:
  rms(total) = 0.14173E-02    rms(broyden)= 0.14161E-02
  rms(prec ) = 0.20100E-02
  weight for this iteration     100.00

 eigenvalues of (default mixing * dielectric matrix)
  average eigenvalue GAMMA=   1.6207
  3.6816  2.5617  2.5617  1.2245  1.2245  1.2125  1.2125  0.8757  0.8757  0.7764

 Free energy of the ion-electron system (eV)
  ---------------------------------------------------
  alpha Z        PSCENC =       872.70583573
  Ewald energy   TEWEN  =    -17934.36381156
  -Hartree energ DENC   =     -7455.67553169
  -exchange      EXHF   =         0.00000000
  -V(xc)+E(xc)   XCENC  =       943.64999801
  PAW double counting   =     22754.38571363   -23812.76464353
  entropy T*S    EENTRO =        -0.00000000
  eigenvalues    EBANDS =     -2989.52412166
  atomic energy  EATOM  =     26212.11861568
  Solvation  Ediel_sol  =         0.00000000
  ---------------------------------------------------
  free energy    TOTEN  =     -1409.46794538 eV

  energy without entropy =    -1409.46794538  energy(sigma->0) =    -1409.46794538


--------------------------------------------------------------------------------------------------------




--------------------------------------- Iteration      1(  16)  ---------------------------------------


    POTLOK:  cpu time    0.2936: real time    0.3160
    SETDIJ:  cpu time    1.2004: real time    1.2004
     EDDAV:  cpu time   17.1206: real time   17.1216
       DOS:  cpu time    0.0004: real time    0.0004
    CHARGE:  cpu time    2.7195: real time    2.7197
    MIXING:  cpu time    0.0019: real time    0.0019
    --------------------------------------------
      LOOP:  cpu time   21.3364: real time   21.3599

 eigenvalue-minimisations  :  3664
 total energy-change (2. order) :-0.1195141E-04  (-0.3035623E-05)
 number of electron     343.9999999 magnetization 
 augmentation part       -3.2089740 magnetization 

 Broyden mixing:
  rms(total) = 0.52679E-03    rms(broyden)= 0.52368E-03
  rms(prec ) = 0.71225E-03
  weight for this iteration     100.00

 eigenvalues of (default mixing * dielectric matrix)
  average eigenvalue GAMMA=   1.6521
  4.0996  2.7278  2.1317  2.1317  1.0994  1.0994  1.1606  1.1606  0.8616  0.8616
  0.8394

 Free energy of the ion-electron system (eV)
  ---------------------------------------------------
  alpha Z        PSCENC =       872.70583573
  Ewald energy   TEWEN  =    -17934.36381156
  -Hartree energ DENC   =     -7455.81708871
  -exchange      EXHF   =         0.00000000
  -V(xc)+E(xc)   XCENC  =       943.65035969
  PAW double counting   =     22753.98665343   -23812.35349566
  entropy T*S    EENTRO =        -0.00000000
  eigenvalues    EBANDS =     -2989.39502594
  atomic energy  EATOM  =     26212.11861568
  Solvation  Ediel_sol  =         0.00000000
  ---------------------------------------------------
  free energy    TOTEN  =     -1409.46795733 eV

  energy without entropy =    -1409.46795733  energy(sigma->0) =    -1409.46795733


--------------------------------------------------------------------------------------------------------




--------------------------------------- Iteration      1(  17)  ---------------------------------------


    POTLOK:  cpu time    0.2615: real time    0.2794
    SETDIJ:  cpu time    1.1997: real time    1.1998
     EDDAV:  cpu time   18.2879: real time   18.2887
       DOS:  cpu time    0.0004: real time    0.0004
    CHARGE:  cpu time    2.7101: real time    2.7102
    MIXING:  cpu time    0.0019: real time    0.0020
    --------------------------------------------
      LOOP:  cpu time   22.4616: real time   22.4803

 eigenvalue-minimisations  :  4064
 total energy-change (2. order) :-0.2895266E-04  (-0.1288222E-05)
 number of electron     343.9999999 magnetization 
 augmentation part       -3.2087858 magnetization 

 Broyden mixing:
  rms(total) = 0.39461E-03    rms(broyden)= 0.39047E-03
  rms(prec ) = 0.42924E-03
  weight for this iteration     100.00

 eigenvalues of (default mixing * dielectric matrix)
  average eigenvalue GAMMA=   1.6375
  4.2797  2.9543  2.2843  2.1001  1.1534  1.1534  1.1205  1.1205  0.9805  0.9805
  0.7614  0.7614

 Free energy of the ion-electron system (eV)
  ---------------------------------------------------
  alpha Z        PSCENC =       872.70583573
  Ewald energy   TEWEN  =    -17934.36381156
  -Hartree energ DENC   =     -7455.76154943
  -exchange      EXHF   =         0.00000000
  -V(xc)+E(xc)   XCENC  =       943.64435507
  PAW double counting   =     22753.70609944   -23812.07671616
  entropy T*S    EENTRO =        -0.00000000
  eigenvalues    EBANDS =     -2989.44081505
  atomic energy  EATOM  =     26212.11861568
  Solvation  Ediel_sol  =         0.00000000
  ---------------------------------------------------
  free energy    TOTEN  =     -1409.46798628 eV

  energy without entropy =    -1409.46798628  energy(sigma->0) =    -1409.46798628


--------------------------------------------------------------------------------------------------------




--------------------------------------- Iteration      1(  18)  ---------------------------------------


    POTLOK:  cpu time    0.2854: real time    0.2997
    SETDIJ:  cpu time    1.1979: real time    1.1979
     EDDAV:  cpu time   13.4295: real time   13.4301
       DOS:  cpu time    0.0004: real time    0.0004
    CHARGE:  cpu time    2.7095: real time    2.7096
    MIXING:  cpu time    0.0020: real time    0.0020
    --------------------------------------------
      LOOP:  cpu time   17.6247: real time   17.6397

 eigenvalue-minimisations  :  2352
 total energy-change (2. order) : 0.1340369E-04  (-0.9123860E-07)
 number of electron     343.9999999 magnetization 
 augmentation part       -3.2088287 magnetization 

 Broyden mixing:
  rms(total) = 0.18215E-03    rms(broyden)= 0.17306E-03
  rms(prec ) = 0.19648E-03
  weight for this iteration     100.00

 eigenvalues of (default mixing * dielectric matrix)
  average eigenvalue GAMMA=   1.6468
  4.4815  2.9972  2.2471  2.2471  1.2186  1.2186  1.2068  1.2068  1.0487  1.0487
  0.8519  0.8179  0.8179

 Free energy of the ion-electron system (eV)
  ---------------------------------------------------
  alpha Z        PSCENC =       872.70583573
  Ewald energy   TEWEN  =    -17934.36381156
  -Hartree energ DENC   =     -7455.77220528
  -exchange      EXHF   =         0.00000000
  -V(xc)+E(xc)   XCENC  =       943.64464082
  PAW double counting   =     22753.92899398   -23812.29679849
  entropy T*S    EENTRO =        -0.00000000
  eigenvalues    EBANDS =     -2989.43324378
  atomic energy  EATOM  =     26212.11861568
  Solvation  Ediel_sol  =         0.00000000
  ---------------------------------------------------
  free energy    TOTEN  =     -1409.46797288 eV

  energy without entropy =    -1409.46797288  energy(sigma->0) =    -1409.46797288


--------------------------------------------------------------------------------------------------------




--------------------------------------- Iteration      1(  19)  ---------------------------------------


    POTLOK:  cpu time    0.2589: real time    0.3068
    SETDIJ:  cpu time    1.2007: real time    1.2007
     EDDAV:  cpu time   12.8122: real time   12.8128
       DOS:  cpu time    0.0004: real time    0.0004
    CHARGE:  cpu time    2.7098: real time    2.7099
    MIXING:  cpu time    0.0021: real time    0.0021
    --------------------------------------------
      LOOP:  cpu time   16.9840: real time   17.0326

 eigenvalue-minimisations  :  2136
 total energy-change (2. order) : 0.3873430E-05  (-0.3684276E-07)
 number of electron     343.9999999 magnetization 
 augmentation part       -3.2088432 magnetization 

 Broyden mixing:
  rms(total) = 0.10026E-03    rms(broyden)= 0.82627E-04
  rms(prec ) = 0.97360E-04
  weight for this iteration     100.00
  WARNING: grid for Broyden might be to small

 eigenvalues of (default mixing * dielectric matrix)
  average eigenvalue GAMMA=   1.6673
  4.6427  3.0313  2.3239  2.3239  1.7615  1.1787  1.1787  1.2555  1.0904  1.0904
  0.9556  0.9556  0.7774  0.7774

 Free energy of the ion-electron system (eV)
  ---------------------------------------------------
  alpha Z        PSCENC =       872.70583573
  Ewald energy   TEWEN  =    -17934.36381156
  -Hartree energ DENC   =     -7455.77326607
  -exchange      EXHF   =         0.00000000
  -V(xc)+E(xc)   XCENC  =       943.64454527
  PAW double counting   =     22753.98281133   -23812.35027912
  entropy T*S    EENTRO =        -0.00000000
  eigenvalues    EBANDS =     -2989.43242028
  atomic energy  EATOM  =     26212.11861568
  Solvation  Ediel_sol  =         0.00000000
  ---------------------------------------------------
  free energy    TOTEN  =     -1409.46796901 eV

  energy without entropy =    -1409.46796901  energy(sigma->0) =    -1409.46796901


--------------------------------------------------------------------------------------------------------




--------------------------------------- Iteration      1(  20)  ---------------------------------------


    POTLOK:  cpu time    0.3051: real time    0.3079
    SETDIJ:  cpu time    1.2000: real time    1.2000
     EDDAV:  cpu time   12.5228: real time   12.5236
       DOS:  cpu time    0.0004: real time    0.0004
    CHARGE:  cpu time    2.7122: real time    2.7123
    MIXING:  cpu time    0.0026: real time    0.0026
    --------------------------------------------
      LOOP:  cpu time   16.7431: real time   16.7468

 eigenvalue-minimisations  :  2032
 total energy-change (2. order) : 0.1900847E-05  (-0.1545614E-07)
 number of electron     343.9999999 magnetization 
 augmentation part       -3.2088588 magnetization 

 Broyden mixing:
  rms(total) = 0.75947E-04    rms(broyden)= 0.50440E-04
  rms(prec ) = 0.59473E-04
  weight for this iteration     100.00
  WARNING: grid for Broyden might be to small

 eigenvalues of (default mixing * dielectric matrix)
  average eigenvalue GAMMA=   1.6592
  4.7077  3.0311  2.6331  2.0534  2.0534  1.2390  1.2390  1.1538  1.1538  1.1100
  1.1100  0.9053  0.9053  0.7966  0.7966

 Free energy of the ion-electron system (eV)
  ---------------------------------------------------
  alpha Z        PSCENC =       872.70583573
  Ewald energy   TEWEN  =    -17934.36381156
  -Hartree energ DENC   =     -7455.77639438
  -exchange      EXHF   =         0.00000000
  -V(xc)+E(xc)   XCENC  =       943.64470410
  PAW double counting   =     22754.00316482   -23812.37048644
  entropy T*S    EENTRO =        -0.00000000
  eigenvalues    EBANDS =     -2989.42959506
  atomic energy  EATOM  =     26212.11861568
  Solvation  Ediel_sol  =         0.00000000
  ---------------------------------------------------
  free energy    TOTEN  =     -1409.46796711 eV

  energy without entropy =    -1409.46796711  energy(sigma->0) =    -1409.46796711


--------------------------------------------------------------------------------------------------------




--------------------------------------- Iteration      1(  21)  ---------------------------------------


    POTLOK:  cpu time    0.3026: real time    0.3195
    SETDIJ:  cpu time    1.1979: real time    1.1980
     EDDAV:  cpu time   12.6720: real time   12.6726
       DOS:  cpu time    0.0004: real time    0.0004
    --------------------------------------------
      LOOP:  cpu time   14.1729: real time   14.1905

 eigenvalue-minimisations  :  2088
 total energy-change (2. order) : 0.2105871E-06  (-0.1299814E-07)
 number of electron     343.9999999 magnetization 
 augmentation part       -3.2088588 magnetization 

 Free energy of the ion-electron system (eV)
  ---------------------------------------------------
  alpha Z        PSCENC =       872.70583573
  Ewald energy   TEWEN  =    -17934.36381156
  -Hartree energ DENC   =     -7455.77773760
  -exchange      EXHF   =         0.00000000
  -V(xc)+E(xc)   XCENC  =       943.64480850
  PAW double counting   =     22754.01467526   -23812.38244810
  entropy T*S    EENTRO =        -0.00000000
  eigenvalues    EBANDS =     -2989.42790481
  atomic energy  EATOM  =     26212.11861568
  Solvation  Ediel_sol  =         0.00000000
  ---------------------------------------------------
  free energy    TOTEN  =     -1409.46796690 eV

  energy without entropy =    -1409.46796690  energy(sigma->0) =    -1409.46796690


--------------------------------------------------------------------------------------------------------




 average (electrostatic) potential at core
  the test charge radii are     1.1312  1.1541  1.0178
  (the norm of the test charge is              1.0000)
       1 -55.2151       2 -55.2991       3 -55.1445       4 -55.2114       5 -55.2337
       6 -55.2236       7 -55.2281       8 -55.3327       9-101.5962      10-101.6114
      11-101.6234      12-101.6222      13-101.9245      14-101.9002      15-101.6621
      16-101.8478      17 -69.0492      18 -69.0593      19 -69.0218      20 -68.9962
      21 -69.0233      22 -68.9719      23 -69.0761      24 -69.0583      25 -68.9943
      26 -69.0019      27 -68.9658      28 -68.9911      29 -68.9945      30 -68.9262
      31 -69.0205      32 -68.9223      33 -68.9486      34 -68.9945      35 -69.0184
      36 -69.3912      37 -69.4331      38 -68.9970      39 -69.0735



 E-fermi :   0.4302     XC(G=0):  -7.9578     alpha+bet : -6.9586


 k-point     1 :       0.0000    0.0000    0.0000
  band No.  band energies     occupation 
      1     -20.8620      2.00000
      2     -20.8289      2.00000
      3     -20.7614      2.00000
      4     -20.7548      2.00000
      5     -20.7530      2.00000
      6     -20.7489      2.00000
      7     -20.7400      2.00000
      8     -20.6824      2.00000
      9     -16.7074      2.00000
     10     -16.6832      2.00000
     11     -16.6672      2.00000
     12     -16.6482      2.00000
     13     -16.6401      2.00000
     14     -16.6148      2.00000
     15     -16.5938      2.00000
     16     -16.5894      2.00000
     17     -16.5806      2.00000
     18     -16.5644      2.00000
     19     -16.5603      2.00000
     20     -16.5575      2.00000
     21     -16.5419      2.00000
     22     -16.5292      2.00000
     23     -16.4562      2.00000
     24     -16.4459      2.00000
     25     -16.4362      2.00000
     26     -16.4231      2.00000
     27     -16.4179      2.00000
     28     -16.4140      2.00000
     29     -16.4073      2.00000
     30     -16.3674      2.00000
     31     -16.3633      2.00000
     32     -16.3559      2.00000
     33     -16.3394      2.00000
     34     -16.3272      2.00000
     35     -16.3186      2.00000
     36     -16.3138      2.00000
     37     -16.2921      2.00000
     38     -16.2878      2.00000
     39     -16.2863      2.00000
     40     -16.2816      2.00000
     41     -16.2754      2.00000
     42     -16.2750      2.00000
     43     -16.2746      2.00000
     44     -16.2677      2.00000
     45     -16.2650      2.00000
     46     -16.2608      2.00000
     47     -16.2607      2.00000
     48     -16.2560      2.00000
     49     -14.5035      2.00000
     50     -14.3981      2.00000
     51     -14.2987      2.00000
     52     -14.1882      2.00000
     53     -14.1324      2.00000
     54     -14.1161      2.00000
     55     -14.1014      2.00000
     56     -14.0978      2.00000
     57     -14.0764      2.00000
     58     -14.0596      2.00000
     59     -14.0337      2.00000
     60     -14.0311      2.00000
     61     -14.0183      2.00000
     62     -14.0060      2.00000
     63     -14.0040      2.00000
     64     -13.9910      2.00000
     65     -13.9499      2.00000
     66     -13.9418      2.00000
     67     -13.8770      2.00000
     68     -13.7718      2.00000
     69     -13.7634      2.00000
     70     -13.7432      2.00000
     71     -13.7142      2.00000
     72      -8.2132      2.00000
     73      -7.8033      2.00000
     74      -7.7714      2.00000
     75      -7.6787      2.00000
     76      -7.3459      2.00000
     77      -7.2976      2.00000
     78      -7.2654      2.00000
     79      -7.2607      2.00000
     80      -7.2486      2.00000
     81      -7.2282      2.00000
     82      -7.2237      2.00000
     83      -7.2163      2.00000
     84      -7.1871      2.00000
     85      -7.1837      2.00000
     86      -7.1771      2.00000
     87      -7.1655      2.00000
     88      -7.1599      2.00000
     89      -7.1560      2.00000
     90      -7.1538      2.00000
     91      -7.1515      2.00000
     92      -7.1478      2.00000
     93      -7.1439      2.00000
     94      -7.1414      2.00000
     95      -7.1357      2.00000
     96      -7.1341      2.00000
     97      -7.1252      2.00000
     98      -7.1069      2.00000
     99      -7.0982      2.00000
    100      -7.0933      2.00000
    101      -7.0772      2.00000
    102      -7.0477      2.00000
    103      -6.5849      2.00000
    104      -3.3668      2.00000
    105      -3.3372      2.00000
    106      -3.2924      2.00000
    107      -3.2701      2.00000
    108      -3.2591      2.00000
    109      -3.1831      2.00000
    110      -3.1756      2.00000
    111      -3.1521      2.00000
    112      -3.1191      2.00000
    113      -3.0842      2.00000
    114      -3.0082      2.00000
    115      -2.8735      2.00000
    116      -2.2338      2.00000
    117      -2.1860      2.00000
    118      -2.1502      2.00000
    119      -2.0954      2.00000
    120      -2.0125      2.00000
    121      -1.9716      2.00000
    122      -1.9420      2.00000
    123      -1.8711      2.00000
    124      -1.8529      2.00000
    125      -1.8402      2.00000
    126      -1.7904      2.00000
    127      -1.7328      2.00000
    128      -1.7000      2.00000
    129      -1.6680      2.00000
    130      -1.6477      2.00000
    131      -1.6102      2.00000
    132      -1.5815      2.00000
    133      -1.5525      2.00000
    134      -1.5484      2.00000
    135      -1.5177      2.00000
    136      -1.5156      2.00000
    137      -1.4927      2.00000
    138      -1.4830      2.00000
    139      -1.4572      2.00000
    140      -1.4409      2.00000
    141      -1.4295      2.00000
    142      -1.4129      2.00000
    143      -1.4068      2.00000
    144      -1.4064      2.00000
    145      -1.3928      2.00000
    146      -1.3680      2.00000
    147      -1.3609      2.00000
    148      -1.3500      2.00000
    149      -1.3426      2.00000
    150      -1.3304      2.00000
    151      -1.3101      2.00000
    152      -1.3028      2.00000
    153      -1.2826      2.00000
[...]


--------------------------------------------------------------------------------------------------------


 soft charge-density along one line, spin component           1
         0         1         2         3         4         5         6         7         8         9
 total charge-density along one line

 pseudopotential strength for first ion, spin component:           1
 17.943  -4.697   0.004   0.001   0.001  -0.005  -0.002  -0.001
 -4.697   1.238  -0.001  -0.000  -0.000   0.001   0.000   0.000
  0.004  -0.001   2.253   0.001   0.000  -2.692  -0.001  -0.000
  0.001  -0.000   0.001   2.253  -0.000  -0.001  -2.692   0.000
  0.001  -0.000   0.000  -0.000   2.253  -0.000   0.000  -2.692
 -0.005   0.001  -2.692  -0.001  -0.000   3.185   0.002   0.001
 -0.002   0.000  -0.001  -2.692   0.000   0.002   3.184  -0.001
 -0.001   0.000  -0.000   0.000  -2.692   0.001  -0.001   3.184
  0.000  -0.000   0.001   0.000   0.001  -0.001  -0.000  -0.002
  0.001  -0.000   0.002   0.002   0.000  -0.002  -0.002  -0.000
 -0.000   0.000  -0.001  -0.001   0.000   0.002   0.001  -0.000
 -0.000   0.000   0.000   0.001   0.001  -0.000  -0.001  -0.002
 -0.000   0.000  -0.003  -0.000  -0.001   0.004   0.000   0.001
 total augmentation occupancy for first ion, spin component:           1
  1.912  -0.137   0.001   0.000   0.000   0.002   0.001   0.000   0.001   0.001  -0.000  -0.001  -0.000
 -0.137   0.122   0.011   0.003   0.002  -0.005  -0.002   0.000  -0.001  -0.001  -0.001   0.003  -0.000
  0.001   0.011   2.019   0.003   0.001   0.006   0.002   0.001   0.003   0.004  -0.002   0.001  -0.005
  0.000   0.003   0.003   2.018  -0.001   0.002   0.005  -0.001   0.001   0.004  -0.002   0.001  -0.001
  0.000   0.002   0.001  -0.001   2.018   0.001  -0.001   0.004   0.003   0.001  -0.000   0.002  -0.002
  0.002  -0.005   0.006   0.002   0.001   0.009  -0.000  -0.000  -0.002  -0.003   0.000  -0.000   0.001
  0.001  -0.002   0.002   0.005  -0.001  -0.000   0.008   0.001  -0.000  -0.001   0.002  -0.001   0.001
  0.000   0.000   0.001  -0.001   0.004  -0.000   0.001   0.009  -0.001  -0.000  -0.001  -0.001   0.002
  0.001  -0.001   0.003   0.001   0.003  -0.002  -0.000  -0.001   0.007   0.001  -0.000   0.000   0.001
  0.001  -0.001   0.004   0.004   0.001  -0.003  -0.001  -0.000   0.001   0.005   0.000  -0.001   0.001
 -0.000  -0.001  -0.002  -0.002  -0.000   0.000   0.002  -0.001  -0.000   0.000   0.005  -0.002  -0.000
 -0.001   0.003   0.001   0.001   0.002  -0.000  -0.001  -0.001   0.000  -0.001  -0.002   0.004   0.001
 -0.000  -0.000  -0.005  -0.001  -0.002   0.001   0.001   0.002   0.001   0.001  -0.000   0.001   0.004


------------------------ aborting loop because EDIFF is reached ----------------------------------------





 total charge     

# of ion       s       p       d       tot
------------------------------------------
    1        1.786   4.717   0.019   6.522
    2        1.786   4.717   0.018   6.520
    3        1.786   4.717   0.020   6.524
    4        1.785   4.717   0.018   6.520
    5        1.785   4.716   0.017   6.519
    6        1.786   4.716   0.018   6.520
    7        1.785   4.716   0.017   6.519
    8        1.786   4.716   0.018   6.520
    9        1.554   0.423   9.835  11.812
   10        1.554   0.410   9.833  11.797
   11        1.553   0.420   9.834  11.808
   12        1.554   0.416   9.834  11.803
   13        1.537   0.428   9.831  11.795
   14        1.530   0.439   9.831  11.800
   15        1.553   0.413   9.833  11.799
   16        1.541   0.459   9.832  11.832
   17        1.614   3.281   0.006   4.902
   18        1.615   3.283   0.007   4.904
   19        1.614   3.286   0.007   4.907
   20        1.615   3.280   0.006   4.901
   21        1.615   3.285   0.007   4.907
   22        1.614   3.278   0.006   4.897
   23        1.615   3.281   0.007   4.902
   24        1.614   3.283   0.006   4.904
   25        1.614   3.279   0.006   4.898
   26        1.614   3.274   0.006   4.894
   27        1.614   3.282   0.006   4.902
   28        1.614   3.285   0.006   4.905
   29        1.614   3.285   0.007   4.906
   30        1.614   3.282   0.006   4.902
   31        1.615   3.287   0.007   4.908
   32        1.614   3.279   0.006   4.899
   33        1.614   3.284   0.006   4.904
   34        1.614   3.284   0.006   4.904
   35        1.615   3.276   0.007   4.898
   36        1.616   3.271   0.007   4.895
   37        1.616   3.269   0.007   4.891
   38        1.614   3.279   0.006   4.898
   39        1.616   3.278   0.008   4.903
--------------------------------------------------
tot         63.794 116.594  78.955 259.342

    CHARGE:  cpu time    0.3930: real time    0.3930
    FORLOC:  cpu time    0.0112: real time    0.0112
    FORNL :  cpu time    1.9181: real time    1.9183
    STRESS:  cpu time   49.9220: real time   49.9239
    FORCOR:  cpu time    0.2415: real time    0.2415
    FORHAR:  cpu time    0.0277: real time    0.0277
    MIXING:  cpu time    0.0021: real time    0.0021
    OFIELD:  cpu time    0.0000: real time    0.0000

  FORCE on cell =-STRESS in cart. coord.  units (eV):
  Direction    XX          YY          ZZ          XY          YZ          ZX
  --------------------------------------------------------------------------------------
  Alpha Z   872.70584   872.70584   872.70584
  Ewald   -5983.77064 -5665.28993 -6285.38185     6.21040    -8.47970   -27.76894
  Hartree  2482.77959  2677.65774  2295.33899     4.85377    -5.34338   -16.43474
  E(xc)   -1449.29572 -1449.09446 -1449.60372     0.04856    -0.00688    -0.01206
  Local   -2890.53966 -3403.99535 -2400.17026   -11.77210    13.44655    44.10392
  n-local  1750.04737  1749.87165  1744.83692     0.04552     0.25561    -0.00135
  augment   817.95202   818.11643   816.55775     0.04315     0.04178    -0.05514
  Kinetic  4394.44479  4396.31296  4398.91814     0.88006     0.05829     0.49678
  Fock        0.00000     0.00000     0.00000     0.00000     0.00000     0.00000
  -------------------------------------------------------------------------------------
  Total      -5.67642    -3.71513    -6.79820     0.30938    -0.02774     0.32847
  in kB      -5.70165    -3.73164    -6.82842     0.31076    -0.02787     0.32993
  external pressure =       -5.42 kB  Pullay stress =        0.00 kB


 VOLUME and BASIS-vectors are now :
 -----------------------------------------------------------------------------
  energy-cutoff  :      300.00
  volume of cell :     1595.09
      direct lattice vectors                 reciprocal lattice vectors
     8.456489000  0.000000000  8.040301000     0.059126193 -0.000000000  0.062186727
     0.000000000 11.729847000  0.000000000     0.000000000  0.085252604 -0.000000000
    -8.456489000  0.000000000  8.040301000    -0.059126193  0.000000000  0.062186727

  length of vectors
    11.668703715 11.729847000 11.668703715     0.085808482  0.085252604  0.085808482


 FORCES acting on ions
    electron-ion (+dipol)            ewald-force                    non-local-force                 convergence-correction
 -----------------------------------------------------------------------------------------------
   0.200E+02 -.519E+02 -.469E+02   -.200E+02 0.516E+02 0.468E+02   0.304E-01 0.329E+00 0.107E+00   -.149E-04 -.613E-04 0.736E-04
   0.595E+01 -.425E+02 0.330E+02   -.589E+01 0.422E+02 -.327E+02   -.712E-01 0.307E+00 -.264E+00   -.592E-04 -.112E-03 -.126E-04
   0.107E+01 0.389E+02 -.132E+02   -.116E+01 -.389E+02 0.133E+02   0.935E-01 -.661E-02 -.142E+00   0.353E-05 0.563E-04 -.717E-04
   -.340E+02 0.246E+02 -.595E+01   0.338E+02 -.244E+02 0.602E+01   0.169E+00 -.190E+00 -.733E-01   0.849E-04 0.486E-04 0.153E-04
   0.219E+01 -.258E+02 -.807E+00   -.216E+01 0.256E+02 0.705E+00   -.233E-01 0.213E+00 0.977E-01   0.643E-04 -.331E-04 0.227E-04
   0.554E+02 -.267E+02 0.166E+01   -.553E+02 0.265E+02 -.188E+01   -.109E+00 0.192E+00 0.213E+00   -.124E-04 -.991E-04 -.350E-04
   -.351E+02 0.223E+02 0.287E+02   0.350E+02 -.223E+02 -.286E+02   0.814E-01 -.795E-01 -.840E-01   -.400E-04 0.707E-04 -.492E-04
   -.576E+02 0.519E+02 -.127E+02   0.572E+02 -.514E+02 0.124E+02   0.406E+00 -.520E+00 0.326E+00   -.174E-04 0.906E-04 0.788E-04
   0.936E+01 0.157E+02 0.454E-01   -.912E+01 -.155E+02 0.176E+00   -.216E+00 -.198E+00 -.206E+00   -.718E-05 -.326E-06 0.579E-04
   -.197E+02 -.102E+02 -.109E+02   0.197E+02 0.102E+02 0.111E+02   0.259E-01 0.297E-01 -.218E+00   -.217E-04 -.251E-04 -.957E-04
   0.389E+01 0.403E+01 -.112E+02   -.386E+01 -.412E+01 0.121E+02   -.300E-01 0.841E-01 -.980E+00   -.517E-04 -.131E-04 0.980E-05
   0.729E+01 -.382E+01 0.105E+02   -.729E+01 0.407E+01 -.108E+02   -.305E-01 -.254E+00 0.293E+00   0.900E-04 -.432E-04 0.534E-05
   0.949E+02 -.138E+02 -.381E+02   -.991E+02 0.148E+02 0.407E+02   0.438E+01 -.987E+00 -.264E+01   0.249E-03 -.401E-04 -.200E-03
   0.611E+02 0.167E+02 0.100E+03   -.635E+02 -.176E+02 -.106E+03   0.254E+01 0.964E+00 0.569E+01   0.317E-03 0.103E-03 0.393E-03
   -.107E+02 -.622E+01 -.235E+01   0.119E+02 0.585E+01 0.180E+01   -.119E+01 0.359E+00 0.542E+00   -.291E-04 0.902E-05 0.848E-04
   -.295E+02 -.277E+01 0.101E+02   0.248E+02 0.353E+01 -.105E+02   0.415E+01 -.710E+00 0.361E+00   -.716E-04 0.193E-04 -.112E-03
   0.300E+02 0.242E+02 0.183E+02   -.302E+02 -.243E+02 -.185E+02   0.141E+00 0.353E-01 0.191E+00   0.116E-04 0.526E-04 -.786E-06
   0.242E+02 0.226E+02 0.465E+02   -.243E+02 -.226E+02 -.468E+02   0.990E-01 -.249E-01 0.297E+00   0.252E-04 0.491E-04 0.145E-04
   -.997E+01 -.161E+02 0.279E+02   0.101E+02 0.161E+02 -.280E+02   -.131E+00 0.375E-02 0.120E+00   0.421E-05 -.267E-04 0.694E-04
   -.161E+02 -.192E+02 0.372E+02   0.161E+02 0.191E+02 -.376E+02   -.533E-02 -.541E-02 0.354E+00   0.201E-06 -.146E-04 -.612E-04
   0.782E+01 0.145E+02 -.416E+02   -.788E+01 -.144E+02 0.419E+02   0.475E-01 -.422E-02 -.329E+00   -.581E-05 0.247E-04 0.169E-04
   -.116E+02 0.209E+02 -.245E+02   0.116E+02 -.208E+02 0.246E+02   -.518E-01 0.209E-01 -.154E+00   -.230E-04 0.271E-04 -.389E-04
   0.101E+02 -.155E+02 -.417E+02   -.101E+02 0.154E+02 0.421E+02   0.111E-01 0.895E-01 -.374E+00   -.502E-04 -.560E-04 -.108E-04
   0.477E+01 -.210E+02 -.724E+01   -.482E+01 0.209E+02 0.740E+01   0.518E-01 0.206E-01 -.154E+00   0.110E-03 -.450E-04 0.546E-04
   -.144E+02 0.278E+01 0.498E+00   0.145E+02 -.293E+01 -.717E+00   -.116E+00 0.141E+00 0.207E+00   0.311E-04 -.258E-04 0.605E-06
   0.268E+02 -.120E+02 0.430E+02   -.271E+02 0.122E+02 -.431E+02   0.337E+00 -.139E+00 0.126E+00   0.324E-04 0.473E-04 0.442E-04
   -.265E+02 -.199E+02 -.105E+02   0.267E+02 0.201E+02 0.106E+02   -.186E+00 -.136E+00 -.124E+00   -.353E-04 -.367E-04 -.601E-04
   -.106E+02 -.175E+02 -.284E+02   0.107E+02 0.176E+02 0.286E+02   -.165E+00 -.148E+00 -.226E+00   0.179E-04 0.675E-06 0.442E-04
   0.254E+02 0.125E+02 -.142E+02   -.256E+02 -.125E+02 0.142E+02   0.196E+00 0.488E-01 -.762E-01   -.521E-04 -.205E-04 -.934E-05
   0.122E+02 0.219E+02 -.276E+02   -.124E+02 -.221E+02 0.279E+02   0.163E+00 0.192E+00 -.299E+00   0.588E-04 0.502E-05 0.147E-04
   -.241E+02 -.139E+02 0.224E+02   0.243E+02 0.141E+02 -.228E+02   -.159E+00 -.164E+00 0.348E+00   0.240E-04 0.865E-05 0.439E-04
   -.996E+01 -.354E+02 0.267E+02   0.102E+02 0.357E+02 -.269E+02   -.193E+00 -.231E+00 0.144E+00   -.124E-04 -.388E-04 -.692E-04
   0.190E+02 0.255E+02 0.174E+02   -.192E+02 -.257E+02 -.177E+02   0.178E+00 0.166E+00 0.264E+00   -.209E-04 0.183E-04 0.193E-04
   0.145E+02 0.287E+02 0.311E+02   -.147E+02 -.289E+02 -.312E+02   0.176E+00 0.219E+00 0.174E+00   0.278E-04 -.242E-04 0.882E-05
   0.317E+02 -.244E+02 -.258E+02   -.320E+02 0.247E+02 0.261E+02   0.297E+00 -.315E+00 -.270E+00   -.200E-04 0.355E-04 0.515E-06
   -.165E+02 -.147E+02 -.403E+02   0.166E+02 0.149E+02 0.409E+02   -.239E+00 -.201E+00 -.757E+00   0.469E-04 -.132E-04 0.450E-05
   -.535E+02 0.207E+02 -.638E+01   0.539E+02 -.209E+02 0.648E+01   -.537E+00 0.222E+00 0.555E-01   -.790E-04 0.374E-04 -.680E-04
   -.140E+02 0.111E+02 -.469E+02   0.141E+02 -.113E+02 0.473E+02   -.141E+00 0.169E+00 -.319E+00   0.468E-04 -.116E-04 0.674E-04
   -.831E+02 0.144E+02 -.838E+00   0.843E+02 -.145E+02 0.654E+00   -.510E+00 -.133E-01 0.112E+00   -.605E-04 0.137E-04 -.623E-04
 -----------------------------------------------------------------------------------------------
   -.946E+01 0.488E+00 -.237E+01   -.284E-13 0.124E-13 0.128E-12   0.948E+01 -.524E+00 0.233E+01   0.561E-03 -.230E-04 0.187E-03


 POSITION                                       TOTAL-FORCE (eV/Angst)
 -----------------------------------------------------------------------------------
      0.58601      2.79290      3.71826        -0.005841     -0.014626      0.004919
      0.29726      2.70388     12.16803        -0.009460     -0.013432      0.003547
      3.78681      9.09176      7.79863        -0.006709      0.032999     -0.006103
     -4.68663      8.81790      8.04890        -0.005055     -0.001736     -0.007847
     -3.94963      2.87225      7.97475         0.020889      0.001696      0.000052
      4.89794      2.91428      8.32220        -0.013727      0.018645     -0.000620
     -0.49348      8.86631     12.18478         0.003666      0.004599     -0.016268
     -0.63696      8.88678      4.18572        -0.015464      0.005413      0.013729
      0.04780     11.67032      0.04961         0.017815     -0.006997      0.010881
     -0.05417      0.04979      7.98101        -0.021788     -0.001732     -0.021069
      4.23017     11.72577      4.03044         0.002142      0.000073     -0.002300
      4.17652      0.00097     12.01821        -0.022509     -0.008160     -0.012346
      4.36515      5.79849      4.17889         0.097897     -0.023717     -0.037534
      4.20446      5.90773     11.94872         0.081700      0.030724      0.089238
     -8.32806      5.87752      8.09812        -0.003161     -0.006141      0.003047
     -0.23343      5.83307      8.04477        -0.467704      0.038624      0.035831
     -4.21044      8.75021     11.75831        -0.006950     -0.009445      0.005389
      4.20134      8.80941     11.38704         0.001304     -0.008918      0.000729
      0.12625      2.91321     15.77900         0.000454      0.002345      0.003379
     -0.33119      2.97522      7.32145        -0.020026     -0.059962     -0.013398
      0.16047      8.77366      0.64248        -0.001932     -0.003649      0.003223
      0.02100      8.77713      8.41000        -0.004726      0.069713      0.009383
      4.19215      2.91857      4.70679        -0.001146      0.006103     -0.000649
     -4.45342      2.97495      4.32597        -0.000078      0.008437     -0.004862
     -5.82724      5.48167      9.79335         0.000518      0.004324      0.006984
      1.74036      6.22312     13.55902         0.016458     -0.002203     -0.011784
     -1.79982      0.34962     10.39137        -0.006662      0.005301      0.008041
     -1.73240      0.33248      2.42705         0.000896      0.002211      0.000452
      6.09156     11.47389      6.38671         0.012262      0.009576     -0.007149
     -2.58290     11.30833      6.40359        -0.015891      0.003687     -0.015799
     -5.87077      0.34019      9.64902         0.008149     -0.001600      0.008699
      2.42574      0.48397      9.60397        -0.006019      0.007811     -0.004222
      1.65271     11.36751      5.56195         0.005838     -0.005962     -0.007092
      1.75048     11.29732     13.69744         0.006081     -0.000403      0.005157
      6.10054      6.34348      6.51729         0.034393      0.004234      0.019882
     -2.66521      6.29919      6.25236        -0.133527     -0.003397     -0.188441
     -1.68107      5.45247     10.62843        -0.129221      0.001737      0.165861
     -1.59096      5.49140      2.48256         0.009949      0.001599      0.005483
      2.46502      5.73057      7.76467         0.577185     -0.087773     -0.046424
 -----------------------------------------------------------------------------------
    total drift:                                0.014495     -0.035058     -0.037700


--------------------------------------------------------------------------------------------------------



  FREE ENERGIE OF THE ION-ELECTRON SYSTEM (eV)
  ---------------------------------------------------
  free  energy   TOTEN  =     -1409.46796690 eV

  energy  without entropy=    -1409.46796690  energy(sigma->0) =    -1409.46796690



--------------------------------------------------------------------------------------------------------


    POTLOK:  cpu time    1.4345: real time    1.4346


--------------------------------------------------------------------------------------------------------


 stress matrix after NEB project (eV)
     -5.67642      0.30947      0.32847
      0.30938     -3.71513     -0.02782
      0.32849     -0.02774     -6.79820
  FORCES: max atom, RMS     0.585664    0.134750
  FORCE total and by dimension    0.841516    0.577185
  Stress total and by dimension    9.625401    6.798204
     LOOP+:  cpu time  483.1474: real time  483.7142
    4ORBIT:  cpu time    0.0000: real time    0.0000



 total charge     

# of ion       s       p       d       tot
------------------------------------------
    1        1.786   4.717   0.019   6.522
    2        1.786   4.717   0.018   6.520
    3        1.786   4.717   0.020   6.524
    4        1.785   4.717   0.018   6.520
    5        1.785   4.716   0.017   6.519
    6        1.786   4.716   0.018   6.520
    7        1.785   4.716   0.017   6.519
    8        1.786   4.716   0.018   6.520
    9        1.554   0.423   9.835  11.812
   10        1.554   0.410   9.833  11.797
   11        1.553   0.420   9.834  11.808
   12        1.554   0.416   9.834  11.803
   13        1.537   0.428   9.831  11.795
   14        1.530   0.439   9.831  11.800
   15        1.553   0.413   9.833  11.799
   16        1.541   0.459   9.832  11.832
   17        1.614   3.281   0.006   4.902
   18        1.615   3.283   0.007   4.904
   19        1.614   3.286   0.007   4.907
   20        1.615   3.280   0.006   4.901
   21        1.615   3.285   0.007   4.907
   22        1.614   3.278   0.006   4.897
   23        1.615   3.281   0.007   4.902
   24        1.614   3.283   0.006   4.904
   25        1.614   3.279   0.006   4.898
   26        1.614   3.274   0.006   4.894
   27        1.614   3.282   0.006   4.902
   28        1.614   3.285   0.006   4.905
   29        1.614   3.285   0.007   4.906
   30        1.614   3.282   0.006   4.902
   31        1.615   3.287   0.007   4.908
   32        1.614   3.279   0.006   4.899
   33        1.614   3.284   0.006   4.904
   34        1.614   3.284   0.006   4.904
   35        1.615   3.276   0.007   4.898
   36        1.616   3.271   0.007   4.895
   37        1.616   3.269   0.007   4.891
   38        1.614   3.279   0.006   4.898
   39        1.616   3.278   0.008   4.903
--------------------------------------------------
tot         63.794 116.594  78.955 259.342


 total amount of memory used by VASP MPI-rank0    60650. kBytes
=======================================================================

   base      :      30000. kBytes
   nonlr-proj:       6485. kBytes
   fftplans  :       8423. kBytes
   grid      :       7465. kBytes
   one-center:         77. kBytes
   wavefun   :       8200. kBytes

  
  
 General timing and accounting informations for this job:
 ========================================================
  
                  Total CPU time used (sec):      495.531
                            User time (sec):      494.087
                          System time (sec):        1.444
                         Elapsed time (sec):      496.409
  
                   Maximum memory used (kb):       78416.
                   Average memory used (kb):           0.
  
                          Minor page faults:        20908
                          Major page faults:            2
                 Voluntary context switches:         1444
