 running on   64 total cores
 distrk:  each k-point on   64 cores,    1 groups
 distr:  one band on    8 cores,    8 groups
 using from now: INCAR     
 vasp.5.4.4.18Apr17-6-g9f103f2a35 (build Jun 22 2020 09:27:21) complex           
 POSCAR found type information on POSCAR  Cs Pb Br
 POSCAR found :  3 types and      39 ions
 scaLAPACK will be used
 LDA part: xc-table for Pade appr. of Perdew
 POSCAR found type information on POSCAR  Cs Pb Br
 POSCAR found :  3 types and      39 ions
 POSCAR, INCAR and KPOINTS ok, starting setup
 FFT: planning ...
 WAVECAR not read
 entering main loop
       N       E                     dE             d eps       ncg     rms          rms(c)
DAV:   1     0.133157960398E+04    0.13316E+04   -0.11057E+05  3440   0.973E+02
DAV:   2    -0.111364720152E+04   -0.24452E+04   -0.23594E+04  4112   0.300E+02
DAV:   3    -0.147499897061E+04   -0.36135E+03   -0.35941E+03  4432   0.137E+02
DAV:   4    -0.148688965618E+04   -0.11891E+02   -0.11859E+02  3944   0.329E+01
DAV:   5    -0.148742140331E+04   -0.53175E+00   -0.53151E+00  4408   0.540E+00BRMIX: very serious problems
 the old and the new charge density differ
 old charge density:   345.00000 new  344.00000
    0.101E+01
DAV:   6    -0.140972449042E+04    0.77697E+02   -0.23601E+01  4328   0.314E+01    0.721E+00
DAV:   7    -0.140921500514E+04    0.50949E+00   -0.85777E+00  4032   0.562E+00    0.371E+00
DAV:   8    -0.140939209180E+04   -0.17709E+00   -0.44616E-01  4040   0.204E+00    0.216E+00
DAV:   9    -0.140946031664E+04   -0.68225E-01   -0.17842E-01  3688   0.136E+00    0.456E-01
DAV:  10    -0.140946402186E+04   -0.37052E-02   -0.25175E-02  4432   0.452E-01    0.329E-01
DAV:  11    -0.140946559792E+04   -0.15761E-02   -0.24609E-03  3712   0.144E-01    0.170E-01
DAV:  12    -0.140946838775E+04   -0.27898E-02   -0.56952E-03  3584   0.198E-01    0.103E-01
DAV:  13    -0.140946806743E+04    0.32032E-03   -0.13135E-03  4472   0.101E-01    0.574E-02
DAV:  14    -0.140946794983E+04    0.11760E-03   -0.43945E-04  3776   0.425E-02    0.236E-02
DAV:  15    -0.140946794538E+04    0.44537E-05   -0.31193E-05  4104   0.151E-02    0.142E-02
DAV:  16    -0.140946795733E+04   -0.11951E-04   -0.30356E-05  3664   0.154E-02    0.527E-03
DAV:  17    -0.140946798628E+04   -0.28953E-04   -0.12882E-05  4064   0.936E-03    0.395E-03
DAV:  18    -0.140946797288E+04    0.13404E-04   -0.91239E-07  2352   0.291E-03    0.182E-03
DAV:  19    -0.140946796901E+04    0.38734E-05   -0.36843E-07  2136   0.189E-03    0.100E-03
DAV:  20    -0.140946796711E+04    0.19008E-05   -0.15456E-07  2032   0.143E-03    0.759E-04
DAV:  21    -0.140946796690E+04    0.21059E-06   -0.12998E-07  2088   0.950E-04
   1 F= -.14094680E+04 E0= -.14094680E+04  d E =-.113024E-13
Application 1923384 resources: utime ~31612s, stime ~126s, Rss ~78416, inblocks ~1328, outblocks ~111096
