<?xml version="1.0" encoding="ISO-8859-1"?>
<modeling>
 <generator>
  <i name="program" type="string">vasp </i>
  <i name="version" type="string">5.4.4.18Apr17-6-g9f103f2a35  </i>
  <i name="subversion" type="string">(build Jun 22 2020 09:27:21) complex            parallel </i>
  <i name="platform" type="string">tx2_gcc-7.3_libsci-18.07_cray-fftw-3.3.8 </i>
  <i name="date" type="string">2021 10 12 </i>
  <i name="time" type="string">05:36:10 </i>
 </generator>
 <incar>
  <i type="string" name="SYSTEM"> CsPbBr3 cubic bulk</i>
  <i type="string" name="PREC">accurate</i>
  <i type="string" name="ALGO"> NORMAL   ! Electronic minimisation algo</i>
  <i type="logical" name="ADDGRID"> T  </i>
  <i type="int" name="ISPIN">     1</i>
  <i type="int" name="NELM">   200</i>
  <i type="int" name="IBRION">     2</i>
  <i name="EDIFF">      0.00000100</i>
  <i name="EDIFFG">     -0.01000000</i>
  <i type="int" name="NSW">     0</i>
  <i type="int" name="ISIF">     2</i>
  <i type="int" name="ISYM">     0</i>
  <i name="ENCUT">    300.00000000</i>
  <i name="POTIM">      0.50000000</i>
  <i name="NUPDOWN">      0.00000000</i>
  <i name="NELECT">    344.00000000</i>
  <i type="string" name="LREAL"> AUTO</i>
  <i type="int" name="ISMEAR">     0</i>
  <i name="SIGMA">      0.01000000</i>
  <i type="logical" name="LWAVE"> F  </i>
  <i type="logical" name="LCHARG"> F  </i>
  <i type="logical" name="LVHAR"> T  </i>
  <i type="int" name="LORBIT">    10</i>
  <i type="logical" name="LASPH"> T  </i>
  <v type="int" name="KPOINT_BSE">    -1     0     0     0</v>
  <i type="int" name="NELM">   200</i>
  <i type="string" name="METAGGA"> SCAN       ! PBE exchange-correlation</i>
  <i type="logical" name="LASPH"> T  </i>
 </incar>
 <structure name="primitive_cell" >
  <crystal>
   <varray name="basis" >
    <v>       8.45648900       0.00000000       8.04030100 </v>
    <v>       0.00000000      11.72984700       0.00000000 </v>
    <v>      -8.45648900       0.00000000       8.04030100 </v>
   </varray>
   <i name="volume">   1595.08833419 </i>
   <varray name="rec_basis" >
    <v>       0.05912619      -0.00000000       0.06218673 </v>
    <v>       0.00000000       0.08525260      -0.00000000 </v>
    <v>      -0.05912619       0.00000000       0.06218673 </v>
   </varray>
  </crystal>
  <varray name="positions" >
   <v>       0.26587500       0.23810200       0.19657800 </v>
   <v>       0.04850000       0.02834500       0.25336000 </v>
   <v>       0.06031500       0.46815600       0.24845000 </v>
   <v>       0.43571500       0.25364500       0.47487900 </v>
   <v>      -0.45943400       0.24881600       0.04483400 </v>
   <v>       0.25292500       0.02900200      -0.05284300 </v>
   <v>       0.44359800      -0.03089000       0.24816100 </v>
   <v>       0.26447400       0.46732700      -0.04644100 </v>
   <v>      -0.01129100       0.24835900      -0.02622000 </v>
   <v>      -0.49924600      -0.00034800       0.00052600 </v>
   <v>       0.00591100      -0.00507500       0.00025900 </v>
   <v>       0.01118900      -0.49892600      -0.00399800 </v>
   <v>      -0.48203400       0.49433600       0.00177700 </v>
   <v>       0.00570400       0.25362200      -0.46766800 </v>
   <v>       0.49311000       0.00424500       0.49951600 </v>
   <v>       0.24550100      -0.03593500      -0.44906500 </v>
   <v>      -0.37139300       0.48854600       0.33711200 </v>
   <v>       0.48647600       0.49728400      -0.48592000 </v>
   <v>      -0.19287300       0.24845000       0.22793400 </v>
   <v>       0.23123000      -0.46297800      -0.45360200 </v>
   <v>       0.26239700       0.24486700      -0.27055000 </v>
   <v>      -0.00568500       0.00008300      -0.49956900 </v>
   <v>      -0.00835400      -0.49635100       0.49445800 </v>
   <v>       0.22263500      -0.24237900       0.29795700 </v>
   <v>       0.04944200      -0.25202300       0.03046600 </v>
   <v>      -0.25933600       0.04126000       0.45381500 </v>
   <v>      -0.46021100       0.02980600      -0.24737800 </v>
   <v>      -0.43844800       0.46483700      -0.23965700 </v>
   <v>       0.48226400      -0.25402200      -0.01984200 </v>
   <v>      -0.24266100      -0.02182100       0.03699800 </v>
   <v>      -0.23400900      -0.45920200       0.04458700 </v>
   <v>      -0.04470200      -0.03687400      -0.25170000 </v>
   <v>      -0.05390800      -0.46946300      -0.25971000 </v>
   <v>      -0.47576800      -0.25172700      -0.47825100 </v>
   <v>      -0.04346800      -0.24897500       0.45971400 </v>
   <v>      -0.29112900      -0.22490400       0.26107200 </v>
   <v>       0.22343200      -0.24825100      -0.22236300 </v>
   <v>      -0.22573400       0.23051300      -0.26088600 </v>
   <v>      -0.27144600      -0.24412400      -0.21309100 </v>
  </varray>
 </structure>
 <varray name="primitive_index" >
  <v type="int" >        1 </v>
  <v type="int" >       28 </v>
  <v type="int" >       38 </v>
  <v type="int" >       20 </v>
  <v type="int" >       23 </v>
  <v type="int" >       31 </v>
  <v type="int" >       33 </v>
  <v type="int" >       25 </v>
  <v type="int" >       19 </v>
  <v type="int" >       11 </v>
  <v type="int" >        9 </v>
  <v type="int" >       15 </v>
  <v type="int" >       13 </v>
  <v type="int" >       24 </v>
  <v type="int" >       10 </v>
  <v type="int" >       30 </v>
  <v type="int" >       39 </v>
  <v type="int" >       16 </v>
  <v type="int" >        6 </v>
  <v type="int" >       36 </v>
  <v type="int" >        5 </v>
  <v type="int" >       12 </v>
  <v type="int" >       14 </v>
  <v type="int" >        8 </v>
  <v type="int" >       21 </v>
  <v type="int" >       32 </v>
  <v type="int" >       27 </v>
  <v type="int" >       37 </v>
  <v type="int" >       17 </v>
  <v type="int" >       29 </v>
  <v type="int" >       35 </v>
  <v type="int" >       34 </v>
  <v type="int" >       26 </v>
  <v type="int" >       22 </v>
  <v type="int" >       18 </v>
  <v type="int" >        3 </v>
  <v type="int" >        4 </v>
  <v type="int" >        2 </v>
  <v type="int" >        7 </v>
 </varray>
 <kpoints>
  <generation param="Gamma">
   <v type="int" name="divisions">       2        2        2 </v>
   <v name="usershift">      0.00000000       0.00000000       0.00000000 </v>
   <v name="genvec1">      0.50000000       0.00000000       0.00000000 </v>
   <v name="genvec2">      0.00000000       0.50000000       0.00000000 </v>
   <v name="genvec3">      0.00000000       0.00000000       0.50000000 </v>
   <v name="shift">      0.00000000       0.00000000       0.00000000 </v>
  </generation>
  <varray name="kpointlist" >
   <v>       0.00000000       0.00000000       0.00000000 </v>
   <v>       0.50000000       0.00000000       0.00000000 </v>
   <v>       0.00000000       0.50000000       0.00000000 </v>
   <v>       0.50000000       0.50000000       0.00000000 </v>
   <v>       0.00000000       0.00000000       0.50000000 </v>
   <v>       0.50000000       0.00000000       0.50000000 </v>
   <v>       0.00000000       0.50000000       0.50000000 </v>
   <v>       0.50000000       0.50000000       0.50000000 </v>
  </varray>
  <varray name="weights" >
   <v>       0.12500000 </v>
   <v>       0.12500000 </v>
   <v>       0.12500000 </v>
   <v>       0.12500000 </v>
   <v>       0.12500000 </v>
   <v>       0.12500000 </v>
   <v>       0.12500000 </v>
   <v>       0.12500000 </v>
  </varray>
 </kpoints>
 <parameters>
  <separator name="general" >
   <i type="string" name="SYSTEM">CsPbBr3 cubic bulk</i>
   <i type="logical" name="LCOMPAT"> F  </i>
  </separator>
  <separator name="electronic" >
   <i type="string" name="PREC">accura</i>
   <i name="ENMAX">    300.00000000</i>
   <i name="ENAUG">    503.85200000</i>
   <i name="EDIFF">      0.00000100</i>
   <i type="int" name="IALGO">    38</i>
   <i type="int" name="IWAVPR">    10</i>
   <i type="int" name="NBANDS">   208</i>
   <i name="NELECT">    344.00000000</i>
   <i type="int" name="TURBO">     0</i>
   <i type="int" name="IRESTART">     0</i>
   <i type="int" name="NREBOOT">     0</i>
   <i type="int" name="NMIN">     0</i>
   <i name="EREF">      0.00000000</i>
   <separator name="electronic smearing" >
    <i type="int" name="ISMEAR">     0</i>
    <i name="SIGMA">      0.01000000</i>
    <i name="KSPACING">      0.50000000</i>
    <i type="logical" name="KGAMMA"> T  </i>
   </separator>
   <separator name="electronic projectors" >
    <i type="logical" name="LREAL"> T  </i>
    <v name="ROPT">     -0.00025000     -0.00025000     -0.00025000</v>
    <i type="int" name="LMAXPAW">  -100</i>
    <i type="int" name="LMAXMIX">     2</i>
    <i type="logical" name="NLSPLINE"> F  </i>
   </separator>
   <separator name="electronic startup" >
    <i type="int" name="ISTART">     0</i>
    <i type="int" name="ICHARG">     2</i>
    <i type="int" name="INIWAV">     1</i>
   </separator>
   <separator name="electronic spin" >
    <i type="int" name="ISPIN">     1</i>
    <i type="logical" name="LNONCOLLINEAR"> F  </i>
    <v name="MAGMOM">      0.00000000      0.00000000      0.00000000      0.00000000      0.00000000      0.00000000      0.00000000      0.00000000      0.00000000      0.00000000      0.00000000      0.00000000      0.00000000      0.00000000      0.00000000      0.00000000      0.00000000      0.00000000      0.00000000      0.00000000
      0.00000000      0.00000000      0.00000000      0.00000000      0.00000000      0.00000000      0.00000000      0.00000000      0.00000000      0.00000000      0.00000000      0.00000000      0.00000000      0.00000000      0.00000000      0.00000000      0.00000000      0.00000000      0.00000000</v>
    <i name="NUPDOWN">      0.00000000</i>
    <i type="logical" name="LSORBIT"> F  </i>
    <v name="SAXIS">      0.00000000      0.00000000      1.00000000</v>
    <i type="logical" name="LSPIRAL"> F  </i>
    <v name="QSPIRAL">      0.00000000      0.00000000      0.00000000</v>
    <i type="logical" name="LZEROZ"> F  </i>
   </separator>
   <separator name="electronic exchange-correlation" >
    <i type="logical" name="LASPH"> T  </i>
    <i type="logical" name="LMETAGGA"> F  </i>
   </separator>
   <separator name="electronic convergence" >
    <i type="int" name="NELM">   200</i>
    <i type="int" name="NELMDL">    -5</i>
    <i type="int" name="NELMIN">     2</i>
    <i name="ENINI">    300.00000000</i>
    <separator name="electronic convergence detail" >
     <i type="logical" name="LDIAG"> T  </i>
     <i type="logical" name="LSUBROT"> F  </i>
     <i name="WEIMIN">      0.00000000</i>
     <i name="EBREAK">      0.00000000</i>
     <i name="DEPER">      0.30000000</i>
     <i type="int" name="NRMM">     4</i>
     <i name="TIME">      0.40000000</i>
    </separator>
   </separator>
   <separator name="electronic mixer" >
    <i name="AMIX">      0.40000000</i>
    <i name="BMIX">      1.00000000</i>
    <i name="AMIN">      0.10000000</i>
    <i name="AMIX_MAG">      1.60000000</i>
    <i name="BMIX_MAG">      1.00000000</i>
    <separator name="electronic mixer details" >
     <i type="int" name="IMIX">     4</i>
     <i type="logical" name="MIXFIRST"> F  </i>
     <i type="int" name="MAXMIX">   -45</i>
     <i name="WC">    100.00000000</i>
     <i type="int" name="INIMIX">     1</i>
     <i type="int" name="MIXPRE">     1</i>
     <i type="int" name="MREMOVE">     5</i>
    </separator>
   </separator>
   <separator name="electronic dipolcorrection" >
    <i type="logical" name="LDIPOL"> F  </i>
    <i type="logical" name="LMONO"> F  </i>
    <i type="int" name="IDIPOL">     0</i>
    <i name="EPSILON">      1.00000000</i>
    <v name="DIPOL">   -100.00000000   -100.00000000   -100.00000000</v>
    <i name="EFIELD">      0.00000000</i>
   </separator>
  </separator>
  <separator name="grids" >
   <i type="int" name="NGX">    70</i>
   <i type="int" name="NGY">    70</i>
   <i type="int" name="NGZ">    70</i>
   <i type="int" name="NGXF">   140</i>
   <i type="int" name="NGYF">   140</i>
   <i type="int" name="NGZF">   140</i>
   <i type="logical" name="ADDGRID"> T  </i>
  </separator>
  <separator name="ionic" >
   <i type="int" name="NSW">     0</i>
   <i type="int" name="IBRION">    -1</i>
   <i type="int" name="MDALGO">     0</i>
   <i type="int" name="ISIF">     2</i>
   <i name="PSTRESS">      0.00000000</i>
   <i name="EDIFFG">     -0.01000000</i>
   <i type="int" name="NFREE">     1</i>
   <i name="POTIM">      0.50000000</i>
   <i name="SMASS">     -3.00000000</i>
   <i name="SCALEE">      1.00000000</i>
  </separator>
  <separator name="ionic md" >
   <i name="TEBEG">      0.00010000</i>
   <i name="TEEND">      0.00010000</i>
   <i type="int" name="NBLOCK">     1</i>
   <i type="int" name="KBLOCK">     1</i>
   <i type="int" name="NPACO">   256</i>
   <i name="APACO">     16.00000000</i>
  </separator>
  <separator name="symmetry" >
   <i type="int" name="ISYM">     0</i>
   <i name="SYMPREC">      0.00001000</i>
  </separator>
  <separator name="dos" >
   <i type="int" name="LORBIT">    10</i>
   <v name="RWIGS">     -1.00000000     -1.00000000     -1.00000000</v>
   <i type="int" name="NEDOS">   301</i>
   <i name="EMIN">     10.00000000</i>
   <i name="EMAX">    -10.00000000</i>
   <i name="EFERMI">      0.00000000</i>
  </separator>
  <separator name="writing" >
   <i type="int" name="NWRITE">     2</i>
   <i type="logical" name="LWAVE"> F  </i>
   <i type="logical" name="LDOWNSAMPLE"> F  </i>
   <i type="logical" name="LCHARG"> F  </i>
   <i type="logical" name="LPARD"> F  </i>
   <i type="logical" name="LVTOT"> F  </i>
   <i type="logical" name="LVHAR"> T  </i>
   <i type="logical" name="LELF"> F  </i>
   <i type="logical" name="LOPTICS"> F  </i>
   <v name="STM">      0.00000000      0.00000000      0.00000000      0.00000000      0.00000000      0.00000000      0.00000000</v>
  </separator>
  <separator name="performance" >
   <i type="int" name="NPAR">     8</i>
   <i type="int" name="NSIM">     4</i>
   <i type="int" name="NBLK">    -1</i>
   <i type="logical" name="LPLANE"> T  </i>
   <i type="logical" name="LSCALAPACK"> T  </i>
   <i type="logical" name="LSCAAWARE"> F  </i>
   <i type="logical" name="LSCALU"> F  </i>
   <i type="logical" name="LASYNC"> F  </i>
   <i type="logical" name="LORBITALREAL"> F  </i>
  </separator>
  <separator name="miscellaneous" >
   <i type="int" name="IDIOT">     3</i>
   <i type="int" name="ISPECIAL">     0</i>
   <i type="logical" name="LMUSIC"> F  </i>
   <v name="POMASS">    132.90000000    207.20000000     79.90400000</v>
   <v name="DARWINR">      0.00000000      0.00000000      0.00000000</v>
   <v name="DARWINV">      1.00000000      1.00000000      1.00000000</v>
   <i type="logical" name="LCORR"> T  </i>
  </separator>
  <i type="logical" name="GGA_COMPAT"> T  </i>
  <i type="logical" name="LBERRY"> F  </i>
  <i type="int" name="ICORELEVEL">     0</i>
  <i type="logical" name="LDAU"> F  </i>
  <i type="int" name="I_CONSTRAINED_M">     0</i>
  <separator name="electronic exchange-correlation" >
   <i type="string" name="GGA">--</i>
   <i type="int" name="VOSKOWN">     0</i>
   <i type="logical" name="LHFCALC"> F  </i>
   <i type="string" name="PRECFOCK"></i>
   <i type="logical" name="LSYMGRAD"> F  </i>
   <i type="logical" name="LHFONE"> F  </i>
   <i type="logical" name="LRHFCALC"> F  </i>
   <i type="logical" name="LTHOMAS"> F  </i>
   <i type="logical" name="LMODELHF"> F  </i>
   <i name="ENCUT4O">     -1.00000000</i>
   <i type="int" name="EXXOEP">     0</i>
   <i type="int" name="FOURORBIT">     0</i>
   <i name="AEXX">      0.00000000</i>
   <i name="HFALPHA">      0.00000000</i>
   <i name="MCALPHA">      0.00000000</i>
   <i name="ALDAX">      1.00000000</i>
   <i name="AGGAX">      1.00000000</i>
   <i name="ALDAC">      1.00000000</i>
   <i name="AGGAC">      1.00000000</i>
   <i type="int" name="NKREDX">     1</i>
   <i type="int" name="NKREDY">     1</i>
   <i type="int" name="NKREDZ">     1</i>
   <i type="logical" name="SHIFTRED"> F  </i>
   <i type="logical" name="ODDONLY"> F  </i>
   <i type="logical" name="EVENONLY"> F  </i>
   <i type="int" name="LMAXFOCK">     0</i>
   <i type="int" name="NMAXFOCKAE">     0</i>
   <i type="logical" name="LFOCKAEDFT"> F  </i>
   <i name="HFSCREEN">      0.00000000</i>
   <i name="HFSCREENC">      0.00000000</i>
   <i type="int" name="NBANDSGWLOW">     0</i>
  </separator>
  <separator name="vdW DFT" >
   <i type="logical" name="LUSE_VDW"> F  </i>
   <i name="Zab_VDW">     -0.84910000</i>
   <i name="PARAM1">      0.12340000</i>
   <i name="PARAM2">      1.00000000</i>
   <i name="PARAM3">      0.00000000</i>
  </separator>
  <separator name="model GW" >
   <i type="int" name="MODEL_GW">     0</i>
   <i name="MODEL_EPS0">     24.53982053</i>
   <i name="MODEL_ALPHA">      1.00000000</i>
  </separator>
  <separator name="linear response parameters" >
   <i type="logical" name="LEPSILON"> F  </i>
   <i type="logical" name="LRPA"> F  </i>
   <i type="logical" name="LNABLA"> F  </i>
   <i type="logical" name="LVEL"> F  </i>
   <i type="int" name="KINTER">     0</i>
   <i name="CSHIFT">      0.10000000</i>
   <i name="OMEGAMAX">     -1.00000000</i>
   <i name="DEG_THRESHOLD">      0.00200000</i>
   <i name="RTIME">     -0.10000000</i>
   <i name="WPLASMAI">      0.00000000</i>
   <v name="DFIELD">      0.00000000      0.00000000      0.00000000</v>
   <v name="WPLASMA">      0.00000000      0.00000000      0.00000000      0.00000000      0.00000000      0.00000000      0.00000000      0.00000000      0.00000000</v>
  </separator>
  <separator name="orbital magnetization" >
   <i type="logical" name="NUCIND"> F  </i>
   <v name="MAGPOS">      0.00000000      0.00000000      0.00000000</v>
   <i type="logical" name="LNICSALL"> T  </i>
   <i type="logical" name="ORBITALMAG"> F  </i>
   <i type="logical" name="LMAGBLOCH"> F  </i>
   <i type="logical" name="LCHIMAG"> F  </i>
   <i type="logical" name="LGAUGE"> T  </i>
   <i type="int" name="MAGATOM">     0</i>
   <v name="MAGDIPOL">      0.00000000      0.00000000      0.00000000</v>
   <v name="AVECCONST">      0.00000000      0.00000000      0.00000000</v>
  </separator>
  <separator name="response functions" >
   <i type="logical" name="LADDER"> F  </i>
   <i type="logical" name="LRPAFORCE"> F  </i>
   <i type="logical" name="LFXC"> F  </i>
   <i type="logical" name="LHARTREE"> T  </i>
   <i type="int" name="IBSE">     0</i>
   <v type="int" name="KPOINT">    -1     0     0     0</v>
   <i type="logical" name="LTCTE"> F  </i>
   <i type="logical" name="LTETE"> F  </i>
   <i type="logical" name="LTRIPLET"> F  </i>
   <i type="logical" name="LFXCEPS"> F  </i>
   <i type="logical" name="LFXHEG"> F  </i>
   <i type="int" name="NATURALO">     2</i>
   <i type="logical" name="L2ORDER"> F  </i>
   <i type="logical" name="LMP2LT"> F  </i>
   <i type="logical" name="LUSEW"> F  </i>
   <i name="ENCUTGW">     -2.00000000</i>
   <i name="ENCUTGWSOFT">     -2.00000000</i>
   <i name="ENCUTLF">     -1.00000000</i>
   <i type="int" name="LMAXMP2">    -1</i>
   <i name="SCISSOR">      0.00000000</i>
   <i type="int" name="NOMEGA">     0</i>
   <i type="int" name="NOMEGAR">     0</i>
   <i type="int" name="NBANDSGW">    -1</i>
   <i type="int" name="NBANDSO">    -1</i>
   <i type="int" name="NBANDSV">    -1</i>
   <i type="int" name="NELM">   200</i>
   <i type="int" name="NELMHF">     1</i>
   <i type="int" name="DIM">     3</i>
   <i type="int" name="ANTIRES">     0</i>
   <i name="OMEGAMAX">    -30.00000000</i>
   <i name="OMEGAMIN">    -30.00000000</i>
   <i name="OMEGATL">   -200.00000000</i>
   <i type="int" name="OMEGAGRID">   140</i>
   <i name="CSHIFT">     -0.10000000</i>
   <i type="logical" name="SELFENERGY"> F  </i>
   <i type="logical" name="LSPECTRAL"> F  </i>
   <i type="logical" name="LSPECTRALGW"> F  </i>
   <i type="logical" name="LSINGLES"> F  </i>
   <i type="logical" name="LFERMIGW"> F  </i>
   <i type="logical" name="ODDONLYGW"> F  </i>
   <i type="logical" name="EVENONLYGW"> F  </i>
   <i type="int" name="NKREDLFX">     1</i>
   <i type="int" name="NKREDLFY">     1</i>
   <i type="int" name="NKREDLFZ">     1</i>
   <i type="int" name="MAXMEM">  2800</i>
   <i type="int" name="TELESCOPE">     0</i>
   <i type="int" name="TAUPAR">     1</i>
   <i type="int" name="OMEGAPAR">    -1</i>
   <i name="LAMBDA">      1.00000000</i>
  </separator>
  <separator name="External order field" >
   <i name="OFIELD_KAPPA">      0.00000000</i>
   <v name="OFIELD_K">      0.00000000      0.00000000      0.00000000</v>
   <i name="OFIELD_Q6_NEAR">      0.00000000</i>
   <i name="OFIELD_Q6_FAR">      0.00000000</i>
   <i name="OFIELD_A">      0.00000000</i>
  </separator>
 </parameters>
 <atominfo>
  <atoms>      39 </atoms>
  <types>       3 </types>
  <array name="atoms" >
   <dimension dim="1">ion</dimension>
   <field type="string">element</field>
   <field type="int">atomtype</field>
   <set>
    <rc><c>Cs</c><c>   1</c></rc>
    <rc><c>Cs</c><c>   1</c></rc>
    <rc><c>Cs</c><c>   1</c></rc>
    <rc><c>Cs</c><c>   1</c></rc>
    <rc><c>Cs</c><c>   1</c></rc>
    <rc><c>Cs</c><c>   1</c></rc>
    <rc><c>Cs</c><c>   1</c></rc>
    <rc><c>Cs</c><c>   1</c></rc>
    <rc><c>Pb</c><c>   2</c></rc>
    <rc><c>Pb</c><c>   2</c></rc>
    <rc><c>Pb</c><c>   2</c></rc>
    <rc><c>Pb</c><c>   2</c></rc>
    <rc><c>Pb</c><c>   2</c></rc>
    <rc><c>Pb</c><c>   2</c></rc>
    <rc><c>Pb</c><c>   2</c></rc>
    <rc><c>Pb</c><c>   2</c></rc>
    <rc><c>Br</c><c>   3</c></rc>
    <rc><c>Br</c><c>   3</c></rc>
    <rc><c>Br</c><c>   3</c></rc>
    <rc><c>Br</c><c>   3</c></rc>
    <rc><c>Br</c><c>   3</c></rc>
    <rc><c>Br</c><c>   3</c></rc>
    <rc><c>Br</c><c>   3</c></rc>
    <rc><c>Br</c><c>   3</c></rc>
    <rc><c>Br</c><c>   3</c></rc>
    <rc><c>Br</c><c>   3</c></rc>
    <rc><c>Br</c><c>   3</c></rc>
    <rc><c>Br</c><c>   3</c></rc>
    <rc><c>Br</c><c>   3</c></rc>
    <rc><c>Br</c><c>   3</c></rc>
    <rc><c>Br</c><c>   3</c></rc>
    <rc><c>Br</c><c>   3</c></rc>
    <rc><c>Br</c><c>   3</c></rc>
    <rc><c>Br</c><c>   3</c></rc>
    <rc><c>Br</c><c>   3</c></rc>
    <rc><c>Br</c><c>   3</c></rc>
    <rc><c>Br</c><c>   3</c></rc>
    <rc><c>Br</c><c>   3</c></rc>
    <rc><c>Br</c><c>   3</c></rc>
   </set>
  </array>
  <array name="atomtypes" >
   <dimension dim="1">type</dimension>
   <field type="int">atomspertype</field>
   <field type="string">element</field>
   <field>mass</field>
   <field>valence</field>
   <field type="string">pseudopotential</field>
   <set>
    <rc><c>   8</c><c>Cs</c><c>    132.90000000</c><c>      9.00000000</c><c>  PAW_PBE Cs_sv 08Apr2002               </c></rc>
    <rc><c>   8</c><c>Pb</c><c>    207.20000000</c><c>     14.00000000</c><c>  PAW_PBE Pb_d 06Sep2000                </c></rc>
    <rc><c>  23</c><c>Br</c><c>     79.90400000</c><c>      7.00000000</c><c>  PAW_PBE Br 06Sep2000                  </c></rc>
   </set>
  </array>
 </atominfo>
 <structure name="initialpos" >
  <crystal>
   <varray name="basis" >
    <v>       8.45648900       0.00000000       8.04030100 </v>
    <v>       0.00000000      11.72984700       0.00000000 </v>
    <v>      -8.45648900       0.00000000       8.04030100 </v>
   </varray>
   <i name="volume">   1595.08833419 </i>
   <varray name="rec_basis" >
    <v>       0.05912619      -0.00000000       0.06218673 </v>
    <v>       0.00000000       0.08525260      -0.00000000 </v>
    <v>      -0.05912619       0.00000000       0.06218673 </v>
   </varray>
  </crystal>
  <varray name="positions" >
   <v>       0.26587500       0.23810200       0.19657800 </v>
   <v>       0.77426600       0.23051300       0.73911400 </v>
   <v>       0.70887100       0.77509600       0.26107200 </v>
   <v>       0.22343200       0.75174900       0.77763700 </v>
   <v>       0.26239700       0.24486700       0.72945000 </v>
   <v>       0.80712700       0.24845000       0.22793400 </v>
   <v>       0.72855400       0.75587600       0.78690900 </v>
   <v>       0.22263500       0.75762100       0.29795700 </v>
   <v>       0.00591100       0.99492500       0.00025900 </v>
   <v>       0.49311000       0.00424500       0.49951600 </v>
   <v>       0.50075400       0.99965200       0.00052600 </v>
   <v>       0.99431500       0.00008300       0.50043100 </v>
   <v>       0.51796600       0.49433600       0.00177700 </v>
   <v>       0.99164600       0.50364900       0.49445800 </v>
   <v>       0.01118900       0.50107400       0.99600200 </v>
   <v>       0.48647600       0.49728400       0.51408000 </v>
   <v>       0.48226400       0.74597800       0.98015800 </v>
   <v>       0.95653200       0.75102500       0.45971400 </v>
   <v>       0.98870900       0.24835900       0.97378000 </v>
   <v>       0.43571500       0.25364500       0.47487900 </v>
   <v>       0.04944200       0.74797700       0.03046600 </v>
   <v>       0.52423200       0.74827300       0.52174900 </v>
   <v>       0.54056600       0.24881600       0.04483400 </v>
   <v>       0.00570400       0.25362200       0.53233200 </v>
   <v>       0.26447400       0.46732700       0.95355900 </v>
   <v>       0.94609200       0.53053700       0.74029000 </v>
   <v>       0.53978900       0.02980600       0.75262200 </v>
   <v>       0.04850000       0.02834500       0.25336000 </v>
   <v>       0.75733900       0.97817900       0.03699800 </v>
   <v>       0.24550100       0.96406500       0.55093500 </v>
   <v>       0.25292500       0.02900200       0.94715700 </v>
   <v>       0.74066400       0.04126000       0.45381500 </v>
   <v>       0.44359800       0.96911000       0.24816100 </v>
   <v>       0.95529800       0.96312600       0.74830000 </v>
   <v>       0.76599100       0.54079800       0.04458700 </v>
   <v>       0.23123000       0.53702200       0.54639800 </v>
   <v>       0.56155200       0.46483700       0.76034300 </v>
   <v>       0.06031500       0.46815600       0.24845000 </v>
   <v>       0.62860700       0.48854600       0.33711200 </v>
  </varray>
 </structure>
 <calculation>
  <scstep>
   <time name="dav">   16.42   16.42</time>
   <time name="total">   17.88   17.89</time>
   <energy>
    <i name="alphaZ">    872.70583573 </i>
    <i name="ewald"> -17934.36381156 </i>
    <i name="hartreedc">  -7423.00201469 </i>
    <i name="XCdc">    908.09734016 </i>
    <i name="pawpsdc">  21345.28103884 </i>
    <i name="pawaedc"> -22405.85761495 </i>
    <i name="eentropy">     -0.00067595 </i>
    <i name="bandstr">   -243.39910927 </i>
    <i name="atom">  26212.11861568 </i>
    <i name="e_fr_energy">   1331.57960398 </i>
    <i name="e_wo_entrp">   1331.58027994 </i>
    <i name="e_0_energy">   1331.57994196 </i>
   </energy>
  </scstep>
  <scstep>
   <time name="dav">   18.43   18.45</time>
   <time name="total">   18.43   18.45</time>
   <energy>
    <i name="e_fr_energy">  -1113.64720152 </i>
    <i name="e_wo_entrp">  -1113.64720152 </i>
    <i name="e_0_energy">  -1113.64720152 </i>
   </energy>
  </scstep>
  <scstep>
   <time name="dav">   19.28   19.35</time>
   <time name="total">   19.28   19.36</time>
   <energy>
    <i name="e_fr_energy">  -1474.99897061 </i>
    <i name="e_wo_entrp">  -1474.99897061 </i>
    <i name="e_0_energy">  -1474.99897061 </i>
   </energy>
  </scstep>
  <scstep>
   <time name="dav">   17.92   17.93</time>
   <time name="total">   17.92   17.93</time>
   <energy>
    <i name="e_fr_energy">  -1486.88965618 </i>
    <i name="e_wo_entrp">  -1486.88965618 </i>
    <i name="e_0_energy">  -1486.88965618 </i>
   </energy>
  </scstep>
  <scstep>
   <time name="dav">   19.24   19.27</time>
   <time name="total">   21.96   21.99</time>
   <energy>
    <i name="e_fr_energy">  -1487.42140331 </i>
    <i name="e_wo_entrp">  -1487.42140331 </i>
    <i name="e_0_energy">  -1487.42140331 </i>
   </energy>
  </scstep>
  <scstep>
   <time name="dav">   19.01   19.01</time>
   <time name="total">   23.18   23.24</time>
   <energy>
    <i name="e_fr_energy">  -1409.72449042 </i>
    <i name="e_wo_entrp">  -1409.72449042 </i>
    <i name="e_0_energy">  -1409.72449042 </i>
   </energy>
  </scstep>
  <scstep>
   <time name="dav">   18.15   18.15</time>
   <time name="total">   22.36   22.36</time>
   <energy>
    <i name="e_fr_energy">  -1409.21500514 </i>
    <i name="e_wo_entrp">  -1409.21500514 </i>
    <i name="e_0_energy">  -1409.21500514 </i>
   </energy>
  </scstep>
  <scstep>
   <time name="dav">   18.17   18.17</time>
   <time name="total">   22.33   22.38</time>
   <energy>
    <i name="e_fr_energy">  -1409.39209180 </i>
    <i name="e_wo_entrp">  -1409.39209180 </i>
    <i name="e_0_energy">  -1409.39209180 </i>
   </energy>
  </scstep>
  <scstep>
   <time name="dav">   17.17   17.18</time>
   <time name="total">   21.39   21.41</time>
   <energy>
    <i name="e_fr_energy">  -1409.46031664 </i>
    <i name="e_wo_entrp">  -1409.46031664 </i>
    <i name="e_0_energy">  -1409.46031664 </i>
   </energy>
  </scstep>
  <scstep>
   <time name="dav">   19.30   19.30</time>
   <time name="total">   23.49   23.52</time>
   <energy>
    <i name="e_fr_energy">  -1409.46402186 </i>
    <i name="e_wo_entrp">  -1409.46402186 </i>
    <i name="e_0_energy">  -1409.46402186 </i>
   </energy>
  </scstep>
  <scstep>
   <time name="dav">   17.23   17.23</time>
   <time name="total">   21.44   21.46</time>
   <energy>
    <i name="e_fr_energy">  -1409.46559792 </i>
    <i name="e_wo_entrp">  -1409.46559792 </i>
    <i name="e_0_energy">  -1409.46559792 </i>
   </energy>
  </scstep>
  <scstep>
   <time name="dav">   16.85   16.85</time>
   <time name="total">   21.05   21.09</time>
   <energy>
    <i name="e_fr_energy">  -1409.46838775 </i>
    <i name="e_wo_entrp">  -1409.46838775 </i>
    <i name="e_0_energy">  -1409.46838775 </i>
   </energy>
  </scstep>
  <scstep>
   <time name="dav">   19.42   19.42</time>
   <time name="total">   23.64   23.66</time>
   <energy>
    <i name="e_fr_energy">  -1409.46806743 </i>
    <i name="e_wo_entrp">  -1409.46806743 </i>
    <i name="e_0_energy">  -1409.46806743 </i>
   </energy>
  </scstep>
  <scstep>
   <time name="dav">   17.41   17.41</time>
   <time name="total">   21.62   21.65</time>
   <energy>
    <i name="e_fr_energy">  -1409.46794983 </i>
    <i name="e_wo_entrp">  -1409.46794983 </i>
    <i name="e_0_energy">  -1409.46794983 </i>
   </energy>
  </scstep>
  <scstep>
   <time name="dav">   18.36   18.36</time>
   <time name="total">   22.55   22.60</time>
   <energy>
    <i name="e_fr_energy">  -1409.46794538 </i>
    <i name="e_wo_entrp">  -1409.46794538 </i>
    <i name="e_0_energy">  -1409.46794538 </i>
   </energy>
  </scstep>
  <scstep>
   <time name="dav">   17.12   17.12</time>
   <time name="total">   21.34   21.36</time>
   <energy>
    <i name="e_fr_energy">  -1409.46795733 </i>
    <i name="e_wo_entrp">  -1409.46795733 </i>
    <i name="e_0_energy">  -1409.46795733 </i>
   </energy>
  </scstep>
  <scstep>
   <time name="dav">   18.29   18.29</time>
   <time name="total">   22.46   22.48</time>
   <energy>
    <i name="e_fr_energy">  -1409.46798628 </i>
    <i name="e_wo_entrp">  -1409.46798628 </i>
    <i name="e_0_energy">  -1409.46798628 </i>
   </energy>
  </scstep>
  <scstep>
   <time name="dav">   13.43   13.43</time>
   <time name="total">   17.62   17.64</time>
   <energy>
    <i name="e_fr_energy">  -1409.46797288 </i>
    <i name="e_wo_entrp">  -1409.46797288 </i>
    <i name="e_0_energy">  -1409.46797288 </i>
   </energy>
  </scstep>
  <scstep>
   <time name="dav">   12.81   12.81</time>
   <time name="total">   16.98   17.03</time>
   <energy>
    <i name="e_fr_energy">  -1409.46796901 </i>
    <i name="e_wo_entrp">  -1409.46796901 </i>
    <i name="e_0_energy">  -1409.46796901 </i>
   </energy>
  </scstep>
  <scstep>
   <time name="dav">   12.52   12.52</time>
   <time name="total">   16.74   16.75</time>
   <energy>
    <i name="e_fr_energy">  -1409.46796711 </i>
    <i name="e_wo_entrp">  -1409.46796711 </i>
    <i name="e_0_energy">  -1409.46796711 </i>
   </energy>
  </scstep>
  <scstep>
   <time name="dav">   12.67   12.67</time>
   <time name="total">   14.17   14.19</time>
   <energy>
    <i name="alphaZ">    872.70583573 </i>
    <i name="ewald"> -17934.36381156 </i>
    <i name="hartreedc">  -7455.77773760 </i>
    <i name="XCdc">    943.64480850 </i>
    <i name="pawpsdc">  22754.01467526 </i>
    <i name="pawaedc"> -23812.38244810 </i>
    <i name="eentropy">     -0.00000000 </i>
    <i name="bandstr">  -2989.42790481 </i>
    <i name="atom">  26212.11861568 </i>
    <i name="e_fr_energy">  -1409.46796690 </i>
    <i name="e_wo_entrp">  -1409.46796690 </i>
    <i name="e_0_energy">  -1409.46796690 </i>
   </energy>
  </scstep>
  <structure>
   <crystal>
    <varray name="basis" >
     <v>       8.45648900       0.00000000       8.04030100 </v>
     <v>       0.00000000      11.72984700       0.00000000 </v>
     <v>      -8.45648900       0.00000000       8.04030100 </v>
    </varray>
    <i name="volume">   1595.08833419 </i>
    <varray name="rec_basis" >
     <v>       0.05912619      -0.00000000       0.06218673 </v>
     <v>       0.00000000       0.08525260      -0.00000000 </v>
     <v>      -0.05912619       0.00000000       0.06218673 </v>
    </varray>
   </crystal>
   <varray name="positions" >
    <v>       0.26587500       0.23810200       0.19657800 </v>
    <v>       0.77426600       0.23051300       0.73911400 </v>
    <v>       0.70887100       0.77509600       0.26107200 </v>
    <v>       0.22343200       0.75174900       0.77763700 </v>
    <v>       0.26239700       0.24486700       0.72945000 </v>
    <v>       0.80712700       0.24845000       0.22793400 </v>
    <v>       0.72855400       0.75587600       0.78690900 </v>
    <v>       0.22263500       0.75762100       0.29795700 </v>
    <v>       0.00591100       0.99492500       0.00025900 </v>
    <v>       0.49311000       0.00424500       0.49951600 </v>
    <v>       0.50075400       0.99965200       0.00052600 </v>
    <v>       0.99431500       0.00008300       0.50043100 </v>
    <v>       0.51796600       0.49433600       0.00177700 </v>
    <v>       0.99164600       0.50364900       0.49445800 </v>
    <v>       0.01118900       0.50107400       0.99600200 </v>
    <v>       0.48647600       0.49728400       0.51408000 </v>
    <v>       0.48226400       0.74597800       0.98015800 </v>
    <v>       0.95653200       0.75102500       0.45971400 </v>
    <v>       0.98870900       0.24835900       0.97378000 </v>
    <v>       0.43571500       0.25364500       0.47487900 </v>
    <v>       0.04944200       0.74797700       0.03046600 </v>
    <v>       0.52423200       0.74827300       0.52174900 </v>
    <v>       0.54056600       0.24881600       0.04483400 </v>
    <v>       0.00570400       0.25362200       0.53233200 </v>
    <v>       0.26447400       0.46732700       0.95355900 </v>
    <v>       0.94609200       0.53053700       0.74029000 </v>
    <v>       0.53978900       0.02980600       0.75262200 </v>
    <v>       0.04850000       0.02834500       0.25336000 </v>
    <v>       0.75733900       0.97817900       0.03699800 </v>
    <v>       0.24550100       0.96406500       0.55093500 </v>
    <v>       0.25292500       0.02900200       0.94715700 </v>
    <v>       0.74066400       0.04126000       0.45381500 </v>
    <v>       0.44359800       0.96911000       0.24816100 </v>
    <v>       0.95529800       0.96312600       0.74830000 </v>
    <v>       0.76599100       0.54079800       0.04458700 </v>
    <v>       0.23123000       0.53702200       0.54639800 </v>
    <v>       0.56155200       0.46483700       0.76034300 </v>
    <v>       0.06031500       0.46815600       0.24845000 </v>
    <v>       0.62860700       0.48854600       0.33711200 </v>
   </varray>
  </structure>
  <varray name="forces" >
   <v>      -0.00584071      -0.01462569       0.00491913 </v>
   <v>      -0.00945973      -0.01343239       0.00354687 </v>
   <v>      -0.00670890       0.03299949      -0.00610330 </v>
   <v>      -0.00505484      -0.00173592      -0.00784735 </v>
   <v>       0.02088936       0.00169550       0.00005207 </v>
   <v>      -0.01372738       0.01864536      -0.00062000 </v>
   <v>       0.00366639       0.00459943      -0.01626813 </v>
   <v>      -0.01546437       0.00541250       0.01372944 </v>
   <v>       0.01781463      -0.00699743       0.01088124 </v>
   <v>      -0.02178812      -0.00173187      -0.02106872 </v>
   <v>       0.00214172       0.00007283      -0.00230012 </v>
   <v>      -0.02250919      -0.00816031      -0.01234573 </v>
   <v>       0.09789669      -0.02371671      -0.03753428 </v>
   <v>       0.08170004       0.03072364       0.08923821 </v>
   <v>      -0.00316102      -0.00614094       0.00304733 </v>
   <v>      -0.46770441       0.03862398       0.03583141 </v>
   <v>      -0.00695011      -0.00944499       0.00538857 </v>
   <v>       0.00130393      -0.00891836       0.00072930 </v>
   <v>       0.00045427       0.00234527       0.00337885 </v>
   <v>      -0.02002551      -0.05996202      -0.01339810 </v>
   <v>      -0.00193175      -0.00364877       0.00322309 </v>
   <v>      -0.00472576       0.06971302       0.00938271 </v>
   <v>      -0.00114624       0.00610345      -0.00064853 </v>
   <v>      -0.00007781       0.00843707      -0.00486184 </v>
   <v>       0.00051789       0.00432410       0.00698374 </v>
   <v>       0.01645839      -0.00220285      -0.01178422 </v>
   <v>      -0.00666240       0.00530110       0.00804075 </v>
   <v>       0.00089643       0.00221119       0.00045220 </v>
   <v>       0.01226175       0.00957589      -0.00714872 </v>
   <v>      -0.01589104       0.00368704      -0.01579873 </v>
   <v>       0.00814874      -0.00159964       0.00869944 </v>
   <v>      -0.00601928       0.00781123      -0.00422233 </v>
   <v>       0.00583806      -0.00596201      -0.00709172 </v>
   <v>       0.00608095      -0.00040271       0.00515650 </v>
   <v>       0.03439253       0.00423366       0.01988188 </v>
   <v>      -0.13352671      -0.00339681      -0.18844133 </v>
   <v>      -0.12922071       0.00173740       0.16586143 </v>
   <v>       0.00994904       0.00159949       0.00548333 </v>
   <v>       0.57718520      -0.08777323      -0.04642436 </v>
  </varray>
  <varray name="stress" >
   <v>      -5.70164784       0.31084106       0.32992916 </v>
   <v>       0.31075677      -3.73164150      -0.02794165 </v>
   <v>       0.32994770      -0.02786711      -6.82841670 </v>
  </varray>
  <energy>
   <i name="e_fr_energy">  -1409.46796690 </i>
   <i name="e_wo_entrp">  -1409.46796690 </i>
   <i name="e_0_energy">     -0.00000000 </i>
  </energy>
  <time name="totalsc">  483.15  483.71</time>
  <eigenvalues>
   <array>
    <dimension dim="1">band</dimension>
    <dimension dim="2">kpoint</dimension>
    <dimension dim="3">spin</dimension>
    <field>eigene</field>
    <field>occ</field>
    <set>
     <set comment="spin 1">
      <set comment="kpoint 1">
       <r>  -20.8620    1.0000 </r>
       <r>  -20.8289    1.0000 </r>
       <r>  -20.7614    1.0000 </r>
       <r>  -20.7548    1.0000 </r>
       <r>  -20.7530    1.0000 </r>
       <r>  -20.7489    1.0000 </r>
       <r>  -20.7400    1.0000 </r>
       <r>  -20.6824    1.0000 </r>
       <r>  -16.7074    1.0000 </r>
       <r>  -16.6832    1.0000 </r>
       <r>  -16.6672    1.0000 </r>
       <r>  -16.6482    1.0000 </r>
       <r>  -16.6401    1.0000 </r>
       <r>  -16.6148    1.0000 </r>
       <r>  -16.5938    1.0000 </r>
       <r>  -16.5894    1.0000 </r>
       <r>  -16.5806    1.0000 </r>
       <r>  -16.5644    1.0000 </r>
       <r>  -16.5603    1.0000 </r>
       <r>  -16.5575    1.0000 </r>
       <r>  -16.5419    1.0000 </r>
       <r>  -16.5292    1.0000 </r>
       <r>  -16.4562    1.0000 </r>
       <r>  -16.4459    1.0000 </r>
       <r>  -16.4362    1.0000 </r>
       <r>  -16.4231    1.0000 </r>
       <r>  -16.4179    1.0000 </r>
       <r>  -16.4140    1.0000 </r>
       <r>  -16.4073    1.0000 </r>
       <r>  -16.3674    1.0000 </r>
       <r>  -16.3633    1.0000 </r>
       <r>  -16.3559    1.0000 </r>
       <r>  -16.3394    1.0000 </r>
       <r>  -16.3272    1.0000 </r>
       <r>  -16.3186    1.0000 </r>
       <r>  -16.3138    1.0000 </r>
       <r>  -16.2921    1.0000 </r>
       <r>  -16.2878    1.0000 </r>
       <r>  -16.2863    1.0000 </r>
       <r>  -16.2816    1.0000 </r>
       <r>  -16.2754    1.0000 </r>
       <r>  -16.2750    1.0000 </r>
       <r>  -16.2746    1.0000 </r>
       <r>  -16.2677    1.0000 </r>
       <r>  -16.2650    1.0000 </r>
       <r>  -16.2608    1.0000 </r>
       <r>  -16.2607    1.0000 </r>
       <r>  -16.2560    1.0000 </r>
       <r>  -14.5035    1.0000 </r>
       <r>  -14.3981    1.0000 </r>
       <r>  -14.2987    1.0000 </r>
       <r>  -14.1882    1.0000 </r>
       <r>  -14.1324    1.0000 </r>
       <r>  -14.1161    1.0000 </r>
       <r>  -14.1014    1.0000 </r>
       <r>  -14.0978    1.0000 </r>
       <r>  -14.0764    1.0000 </r>
       <r>  -14.0596    1.0000 </r>
       <r>  -14.0337    1.0000 </r>
       <r>  -14.0311    1.0000 </r>
       <r>  -14.0183    1.0000 </r>
       <r>  -14.0060    1.0000 </r>
       <r>  -14.0040    1.0000 </r>
       <r>  -13.9910    1.0000 </r>
       <r>  -13.9499    1.0000 </r>
       <r>  -13.9418    1.0000 </r>
       <r>  -13.8770    1.0000 </r>
       <r>  -13.7718    1.0000 </r>
       <r>  -13.7634    1.0000 </r>
       <r>  -13.7432    1.0000 </r>
       <r>  -13.7142    1.0000 </r>
       <r>   -8.2132    1.0000 </r>
       <r>   -7.8033    1.0000 </r>
       <r>   -7.7714    1.0000 </r>
       <r>   -7.6787    1.0000 </r>
       <r>   -7.3459    1.0000 </r>
       <r>   -7.2976    1.0000 </r>
       <r>   -7.2654    1.0000 </r>
       <r>   -7.2607    1.0000 </r>
       <r>   -7.2486    1.0000 </r>
       <r>   -7.2282    1.0000 </r>
       <r>   -7.2237    1.0000 </r>
       <r>   -7.2163    1.0000 </r>
       <r>   -7.1871    1.0000 </r>
       <r>   -7.1837    1.0000 </r>
       <r>   -7.1771    1.0000 </r>
       <r>   -7.1655    1.0000 </r>
       <r>   -7.1599    1.0000 </r>
       <r>   -7.1560    1.0000 </r>
       <r>   -7.1538    1.0000 </r>
       <r>   -7.1515    1.0000 </r>
       <r>   -7.1478    1.0000 </r>
       <r>   -7.1439    1.0000 </r>
       <r>   -7.1414    1.0000 </r>
       <r>   -7.1357    1.0000 </r>
       <r>   -7.1341    1.0000 </r>
       <r>   -7.1252    1.0000 </r>
       <r>   -7.1069    1.0000 </r>
       <r>   -7.0982    1.0000 </r>
       <r>   -7.0933    1.0000 </r>
       <r>   -7.0772    1.0000 </r>
       <r>   -7.0477    1.0000 </r>
       <r>   -6.5849    1.0000 </r>
       <r>   -3.3668    1.0000 </r>
       <r>   -3.3372    1.0000 </r>
       <r>   -3.2924    1.0000 </r>
       <r>   -3.2701    1.0000 </r>
       <r>   -3.2591    1.0000 </r>
       <r>   -3.1831    1.0000 </r>
       <r>   -3.1756    1.0000 </r>
       <r>   -3.1521    1.0000 </r>
       <r>   -3.1191    1.0000 </r>
       <r>   -3.0842    1.0000 </r>
       <r>   -3.0082    1.0000 </r>
       <r>   -2.8735    1.0000 </r>
       <r>   -2.2338    1.0000 </r>
       <r>   -2.1860    1.0000 </r>
       <r>   -2.1502    1.0000 </r>
       <r>   -2.0954    1.0000 </r>
       <r>   -2.0125    1.0000 </r>
       <r>   -1.9716    1.0000 </r>
       <r>   -1.9420    1.0000 </r>
       <r>   -1.8711    1.0000 </r>
       <r>   -1.8529    1.0000 </r>
       <r>   -1.8402    1.0000 </r>
       <r>   -1.7904    1.0000 </r>
       <r>   -1.7328    1.0000 </r>
       <r>   -1.7000    1.0000 </r>
       <r>   -1.6680    1.0000 </r>
       <r>   -1.6477    1.0000 </r>
       <r>   -1.6102    1.0000 </r>
       <r>   -1.5815    1.0000 </r>
       <r>   -1.5525    1.0000 </r>
       <r>   -1.5484    1.0000 </r>
       <r>   -1.5177    1.0000 </r>
       <r>   -1.5156    1.0000 </r>
       <r>   -1.4927    1.0000 </r>
       <r>   -1.4830    1.0000 </r>
       <r>   -1.4572    1.0000 </r>
       <r>   -1.4409    1.0000 </r>
       <r>   -1.4295    1.0000 </r>
       <r>   -1.4129    1.0000 </r>
       <r>   -1.4068    1.0000 </r>
       <r>   -1.4064    1.0000 </r>
       <r>   -1.3928    1.0000 </r>
       <r>   -1.3680    1.0000 </r>
       <r>   -1.3609    1.0000 </r>
       <r>   -1.3500    1.0000 </r>
       <r>   -1.3426    1.0000 </r>
       <r>   -1.3304    1.0000 </r>
       <r>   -1.3101    1.0000 </r>
       <r>   -1.3028    1.0000 </r>
       <r>   -1.2826    1.0000 </r>
       <r>   -1.2731    1.0000 </r>
       <r>   -1.2541    1.0000 </r>
       <r>   -1.2328    1.0000 </r>
       <r>   -1.1674    1.0000 </r>
       <r>   -1.1421    1.0000 </r>
       <r>   -1.1245    1.0000 </r>
       <r>   -1.1069    1.0000 </r>
       <r>   -1.0622    1.0000 </r>
       <r>   -1.0322    1.0000 </r>
       <r>   -0.9955    1.0000 </r>
       <r>   -0.9625    1.0000 </r>
       <r>   -0.8575    1.0000 </r>
       <r>   -0.8149    1.0000 </r>
       <r>   -0.7588    1.0000 </r>
       <r>   -0.6283    1.0000 </r>
       <r>   -0.3741    1.0000 </r>
       <r>   -0.2079    1.0000 </r>
       <r>   -0.1255    1.0000 </r>
       <r>    0.3804    1.0000 </r>
       <r>    2.5982    0.0000 </r>
       <r>    2.7734    0.0000 </r>
       <r>    2.8371    0.0000 </r>
       <r>    2.9072    0.0000 </r>
       <r>    3.0380    0.0000 </r>
       <r>    3.1019    0.0000 </r>
       <r>    3.1323    0.0000 </r>
       <r>    3.2092    0.0000 </r>
       <r>    3.3216    0.0000 </r>
       <r>    3.4742    0.0000 </r>
       <r>    3.4829    0.0000 </r>
       <r>    3.5530    0.0000 </r>
       <r>    4.0788    0.0000 </r>
       <r>    4.8012    0.0000 </r>
       <r>    5.0146    0.0000 </r>
       <r>    5.5403    0.0000 </r>
       <r>    5.6262    0.0000 </r>
       <r>    5.6974    0.0000 </r>
       <r>    5.8582    0.0000 </r>
       <r>    5.8792    0.0000 </r>
       <r>    5.9360    0.0000 </r>
       <r>    5.9813    0.0000 </r>
       <r>    5.9929    0.0000 </r>
       <r>    6.0577    0.0000 </r>
       <r>    6.1272    0.0000 </r>
       <r>    6.1455    0.0000 </r>
       <r>    6.1938    0.0000 </r>
       <r>    6.2522    0.0000 </r>
       <r>    6.2859    0.0000 </r>
       <r>    6.3368    0.0000 </r>
       <r>    6.3742    0.0000 </r>
       <r>    6.4240    0.0000 </r>
       <r>    6.4599    0.0000 </r>
       <r>    6.5391    0.0000 </r>
       <r>    6.6346    0.0000 </r>
       <r>    6.6770    0.0000 </r>
      </set>
      <set comment="kpoint 2">
       <r>  -20.8620    1.0000 </r>
       <r>  -20.8289    1.0000 </r>
       <r>  -20.7614    1.0000 </r>
       <r>  -20.7548    1.0000 </r>
       <r>  -20.7527    1.0000 </r>
       <r>  -20.7491    1.0000 </r>
       <r>  -20.7400    1.0000 </r>
       <r>  -20.6824    1.0000 </r>
       <r>  -16.7071    1.0000 </r>
       <r>  -16.6828    1.0000 </r>
       <r>  -16.6648    1.0000 </r>
       <r>  -16.6482    1.0000 </r>
       <r>  -16.6400    1.0000 </r>
       <r>  -16.6153    1.0000 </r>
       <r>  -16.5938    1.0000 </r>
       <r>  -16.5894    1.0000 </r>
       <r>  -16.5805    1.0000 </r>
       <r>  -16.5644    1.0000 </r>
       <r>  -16.5603    1.0000 </r>
       <r>  -16.5575    1.0000 </r>
       <r>  -16.5419    1.0000 </r>
       <r>  -16.5292    1.0000 </r>
       <r>  -16.4563    1.0000 </r>
       <r>  -16.4459    1.0000 </r>
       <r>  -16.4229    1.0000 </r>
       <r>  -16.4220    1.0000 </r>
       <r>  -16.4214    1.0000 </r>
       <r>  -16.4089    1.0000 </r>
       <r>  -16.3942    1.0000 </r>
       <r>  -16.3748    1.0000 </r>
       <r>  -16.3736    1.0000 </r>
       <r>  -16.3575    1.0000 </r>
       <r>  -16.3543    1.0000 </r>
       <r>  -16.3272    1.0000 </r>
       <r>  -16.3186    1.0000 </r>
       <r>  -16.3138    1.0000 </r>
       <r>  -16.2921    1.0000 </r>
       <r>  -16.2879    1.0000 </r>
       <r>  -16.2863    1.0000 </r>
       <r>  -16.2816    1.0000 </r>
       <r>  -16.2754    1.0000 </r>
       <r>  -16.2749    1.0000 </r>
       <r>  -16.2747    1.0000 </r>
       <r>  -16.2677    1.0000 </r>
       <r>  -16.2650    1.0000 </r>
       <r>  -16.2608    1.0000 </r>
       <r>  -16.2607    1.0000 </r>
       <r>  -16.2560    1.0000 </r>
       <r>  -14.4918    1.0000 </r>
       <r>  -14.4157    1.0000 </r>
       <r>  -14.2750    1.0000 </r>
       <r>  -14.2234    1.0000 </r>
       <r>  -14.1651    1.0000 </r>
       <r>  -14.1315    1.0000 </r>
       <r>  -14.1016    1.0000 </r>
       <r>  -14.0975    1.0000 </r>
       <r>  -14.0780    1.0000 </r>
       <r>  -14.0616    1.0000 </r>
       <r>  -14.0467    1.0000 </r>
       <r>  -14.0342    1.0000 </r>
       <r>  -14.0066    1.0000 </r>
       <r>  -14.0048    1.0000 </r>
       <r>  -13.9936    1.0000 </r>
       <r>  -13.9709    1.0000 </r>
       <r>  -13.8980    1.0000 </r>
       <r>  -13.8593    1.0000 </r>
       <r>  -13.8537    1.0000 </r>
       <r>  -13.8057    1.0000 </r>
       <r>  -13.7872    1.0000 </r>
       <r>  -13.7620    1.0000 </r>
       <r>  -13.7503    1.0000 </r>
       <r>   -8.0556    1.0000 </r>
       <r>   -7.9815    1.0000 </r>
       <r>   -7.6541    1.0000 </r>
       <r>   -7.5227    1.0000 </r>
       <r>   -7.4562    1.0000 </r>
       <r>   -7.4342    1.0000 </r>
       <r>   -7.2983    1.0000 </r>
       <r>   -7.2618    1.0000 </r>
       <r>   -7.2591    1.0000 </r>
       <r>   -7.2375    1.0000 </r>
       <r>   -7.2250    1.0000 </r>
       <r>   -7.2132    1.0000 </r>
       <r>   -7.1914    1.0000 </r>
       <r>   -7.1820    1.0000 </r>
       <r>   -7.1757    1.0000 </r>
       <r>   -7.1712    1.0000 </r>
       <r>   -7.1632    1.0000 </r>
       <r>   -7.1607    1.0000 </r>
       <r>   -7.1537    1.0000 </r>
       <r>   -7.1516    1.0000 </r>
       <r>   -7.1487    1.0000 </r>
       <r>   -7.1429    1.0000 </r>
       <r>   -7.1372    1.0000 </r>
       <r>   -7.1335    1.0000 </r>
       <r>   -7.1263    1.0000 </r>
       <r>   -7.1189    1.0000 </r>
       <r>   -7.1105    1.0000 </r>
       <r>   -7.0972    1.0000 </r>
       <r>   -7.0847    1.0000 </r>
       <r>   -7.0739    1.0000 </r>
       <r>   -6.9307    1.0000 </r>
       <r>   -6.8532    1.0000 </r>
       <r>   -3.3446    1.0000 </r>
       <r>   -3.3217    1.0000 </r>
       <r>   -3.2502    1.0000 </r>
       <r>   -3.2422    1.0000 </r>
       <r>   -3.1981    1.0000 </r>
       <r>   -3.1769    1.0000 </r>
       <r>   -3.1173    1.0000 </r>
       <r>   -3.0731    1.0000 </r>
       <r>   -2.9195    1.0000 </r>
       <r>   -2.5530    1.0000 </r>
       <r>   -2.4920    1.0000 </r>
       <r>   -2.4540    1.0000 </r>
       <r>   -2.3982    1.0000 </r>
       <r>   -2.3807    1.0000 </r>
       <r>   -2.3273    1.0000 </r>
       <r>   -2.1888    1.0000 </r>
       <r>   -2.1255    1.0000 </r>
       <r>   -2.0670    1.0000 </r>
       <r>   -2.0522    1.0000 </r>
       <r>   -1.9852    1.0000 </r>
       <r>   -1.9737    1.0000 </r>
       <r>   -1.9246    1.0000 </r>
       <r>   -1.8811    1.0000 </r>
       <r>   -1.8432    1.0000 </r>
       <r>   -1.7845    1.0000 </r>
       <r>   -1.7503    1.0000 </r>
       <r>   -1.7201    1.0000 </r>
       <r>   -1.6776    1.0000 </r>
       <r>   -1.6191    1.0000 </r>
       <r>   -1.5854    1.0000 </r>
       <r>   -1.5549    1.0000 </r>
       <r>   -1.5326    1.0000 </r>
       <r>   -1.5138    1.0000 </r>
       <r>   -1.4901    1.0000 </r>
       <r>   -1.4817    1.0000 </r>
       <r>   -1.4480    1.0000 </r>
       <r>   -1.4443    1.0000 </r>
       <r>   -1.4349    1.0000 </r>
       <r>   -1.4252    1.0000 </r>
       <r>   -1.4173    1.0000 </r>
       <r>   -1.4033    1.0000 </r>
       <r>   -1.3859    1.0000 </r>
       <r>   -1.3779    1.0000 </r>
       <r>   -1.3685    1.0000 </r>
       <r>   -1.3381    1.0000 </r>
       <r>   -1.3259    1.0000 </r>
       <r>   -1.3122    1.0000 </r>
       <r>   -1.2889    1.0000 </r>
       <r>   -1.2820    1.0000 </r>
       <r>   -1.2610    1.0000 </r>
       <r>   -1.2343    1.0000 </r>
       <r>   -1.2175    1.0000 </r>
       <r>   -1.1944    1.0000 </r>
       <r>   -1.1843    1.0000 </r>
       <r>   -1.1698    1.0000 </r>
       <r>   -1.1315    1.0000 </r>
       <r>   -1.0946    1.0000 </r>
       <r>   -1.0848    1.0000 </r>
       <r>   -1.0737    1.0000 </r>
       <r>   -1.0398    1.0000 </r>
       <r>   -0.9616    1.0000 </r>
       <r>   -0.9265    1.0000 </r>
       <r>   -0.8875    1.0000 </r>
       <r>   -0.7444    1.0000 </r>
       <r>   -0.6245    1.0000 </r>
       <r>   -0.5188    1.0000 </r>
       <r>   -0.4727    1.0000 </r>
       <r>   -0.0629    1.0000 </r>
       <r>    0.0261    1.0000 </r>
       <r>    2.5986    0.0000 </r>
       <r>    2.8880    0.0000 </r>
       <r>    2.9409    0.0000 </r>
       <r>    2.9493    0.0000 </r>
       <r>    3.1872    0.0000 </r>
       <r>    3.2450    0.0000 </r>
       <r>    3.3070    0.0000 </r>
       <r>    3.3420    0.0000 </r>
       <r>    3.4441    0.0000 </r>
       <r>    3.9935    0.0000 </r>
       <r>    4.3116    0.0000 </r>
       <r>    4.4132    0.0000 </r>
       <r>    4.5581    0.0000 </r>
       <r>    4.6217    0.0000 </r>
       <r>    4.7286    0.0000 </r>
       <r>    4.8146    0.0000 </r>
       <r>    4.8833    0.0000 </r>
       <r>    5.3549    0.0000 </r>
       <r>    5.5982    0.0000 </r>
       <r>    5.6188    0.0000 </r>
       <r>    5.7589    0.0000 </r>
       <r>    5.8753    0.0000 </r>
       <r>    5.9394    0.0000 </r>
       <r>    6.0223    0.0000 </r>
       <r>    6.0410    0.0000 </r>
       <r>    6.1327    0.0000 </r>
       <r>    6.1703    0.0000 </r>
       <r>    6.1942    0.0000 </r>
       <r>    6.2464    0.0000 </r>
       <r>    6.2772    0.0000 </r>
       <r>    6.3296    0.0000 </r>
       <r>    6.3656    0.0000 </r>
       <r>    6.4313    0.0000 </r>
       <r>    6.5435    0.0000 </r>
       <r>    6.5723    0.0000 </r>
       <r>    6.6324    0.0000 </r>
      </set>
      <set comment="kpoint 3">
       <r>  -20.8620    1.0000 </r>
       <r>  -20.8289    1.0000 </r>
       <r>  -20.7614    1.0000 </r>
       <r>  -20.7548    1.0000 </r>
       <r>  -20.7530    1.0000 </r>
       <r>  -20.7488    1.0000 </r>
       <r>  -20.7400    1.0000 </r>
       <r>  -20.6824    1.0000 </r>
       <r>  -16.7064    1.0000 </r>
       <r>  -16.6821    1.0000 </r>
       <r>  -16.6650    1.0000 </r>
       <r>  -16.6457    1.0000 </r>
       <r>  -16.6393    1.0000 </r>
       <r>  -16.6129    1.0000 </r>
       <r>  -16.5937    1.0000 </r>
       <r>  -16.5894    1.0000 </r>
       <r>  -16.5806    1.0000 </r>
       <r>  -16.5644    1.0000 </r>
       <r>  -16.5603    1.0000 </r>
       <r>  -16.5575    1.0000 </r>
       <r>  -16.5419    1.0000 </r>
       <r>  -16.5291    1.0000 </r>
       <r>  -16.4459    1.0000 </r>
       <r>  -16.4384    1.0000 </r>
       <r>  -16.4367    1.0000 </r>
       <r>  -16.4240    1.0000 </r>
       <r>  -16.4213    1.0000 </r>
       <r>  -16.4195    1.0000 </r>
       <r>  -16.4102    1.0000 </r>
       <r>  -16.3773    1.0000 </r>
       <r>  -16.3653    1.0000 </r>
       <r>  -16.3616    1.0000 </r>
       <r>  -16.3395    1.0000 </r>
       <r>  -16.3272    1.0000 </r>
       <r>  -16.3185    1.0000 </r>
       <r>  -16.3138    1.0000 </r>
       <r>  -16.2920    1.0000 </r>
       <r>  -16.2878    1.0000 </r>
       <r>  -16.2863    1.0000 </r>
       <r>  -16.2816    1.0000 </r>
       <r>  -16.2755    1.0000 </r>
       <r>  -16.2750    1.0000 </r>
       <r>  -16.2745    1.0000 </r>
       <r>  -16.2677    1.0000 </r>
       <r>  -16.2649    1.0000 </r>
       <r>  -16.2608    1.0000 </r>
       <r>  -16.2607    1.0000 </r>
       <r>  -16.2560    1.0000 </r>
       <r>  -14.4979    1.0000 </r>
       <r>  -14.3966    1.0000 </r>
       <r>  -14.3134    1.0000 </r>
       <r>  -14.2013    1.0000 </r>
       <r>  -14.1715    1.0000 </r>
       <r>  -14.1530    1.0000 </r>
       <r>  -14.1288    1.0000 </r>
       <r>  -14.0674    1.0000 </r>
       <r>  -14.0608    1.0000 </r>
       <r>  -14.0459    1.0000 </r>
       <r>  -14.0330    1.0000 </r>
       <r>  -14.0297    1.0000 </r>
       <r>  -14.0221    1.0000 </r>
       <r>  -13.9994    1.0000 </r>
       <r>  -13.9928    1.0000 </r>
       <r>  -13.9473    1.0000 </r>
       <r>  -13.8844    1.0000 </r>
       <r>  -13.8674    1.0000 </r>
       <r>  -13.8403    1.0000 </r>
       <r>  -13.8360    1.0000 </r>
       <r>  -13.8049    1.0000 </r>
       <r>  -13.8008    1.0000 </r>
       <r>  -13.7177    1.0000 </r>
       <r>   -7.9979    1.0000 </r>
       <r>   -7.9454    1.0000 </r>
       <r>   -7.6247    1.0000 </r>
       <r>   -7.6016    1.0000 </r>
       <r>   -7.4565    1.0000 </r>
       <r>   -7.4272    1.0000 </r>
       <r>   -7.3009    1.0000 </r>
       <r>   -7.2630    1.0000 </r>
       <r>   -7.2616    1.0000 </r>
       <r>   -7.2351    1.0000 </r>
       <r>   -7.2247    1.0000 </r>
       <r>   -7.2115    1.0000 </r>
       <r>   -7.1869    1.0000 </r>
       <r>   -7.1806    1.0000 </r>
       <r>   -7.1771    1.0000 </r>
       <r>   -7.1670    1.0000 </r>
       <r>   -7.1615    1.0000 </r>
       <r>   -7.1586    1.0000 </r>
       <r>   -7.1536    1.0000 </r>
       <r>   -7.1507    1.0000 </r>
       <r>   -7.1457    1.0000 </r>
       <r>   -7.1407    1.0000 </r>
       <r>   -7.1386    1.0000 </r>
       <r>   -7.1357    1.0000 </r>
       <r>   -7.1344    1.0000 </r>
       <r>   -7.1278    1.0000 </r>
       <r>   -7.1166    1.0000 </r>
       <r>   -7.1033    1.0000 </r>
       <r>   -7.0907    1.0000 </r>
       <r>   -7.0717    1.0000 </r>
       <r>   -7.0554    1.0000 </r>
       <r>   -6.8528    1.0000 </r>
       <r>   -3.2776    1.0000 </r>
       <r>   -3.2363    1.0000 </r>
       <r>   -3.2296    1.0000 </r>
       <r>   -3.1820    1.0000 </r>
       <r>   -3.1269    1.0000 </r>
       <r>   -3.0983    1.0000 </r>
       <r>   -3.0708    1.0000 </r>
       <r>   -2.9585    1.0000 </r>
       <r>   -2.5689    1.0000 </r>
       <r>   -2.5518    1.0000 </r>
       <r>   -2.5081    1.0000 </r>
       <r>   -2.4741    1.0000 </r>
       <r>   -2.4481    1.0000 </r>
       <r>   -2.4162    1.0000 </r>
       <r>   -2.3724    1.0000 </r>
       <r>   -2.3556    1.0000 </r>
       <r>   -2.1795    1.0000 </r>
       <r>   -2.0793    1.0000 </r>
       <r>   -2.0460    1.0000 </r>
       <r>   -2.0197    1.0000 </r>
       <r>   -2.0102    1.0000 </r>
       <r>   -1.9421    1.0000 </r>
       <r>   -1.8764    1.0000 </r>
       <r>   -1.8699    1.0000 </r>
       <r>   -1.8268    1.0000 </r>
       <r>   -1.8127    1.0000 </r>
       <r>   -1.7622    1.0000 </r>
       <r>   -1.6830    1.0000 </r>
       <r>   -1.6693    1.0000 </r>
       <r>   -1.6476    1.0000 </r>
       <r>   -1.5673    1.0000 </r>
       <r>   -1.5128    1.0000 </r>
       <r>   -1.5005    1.0000 </r>
       <r>   -1.4753    1.0000 </r>
       <r>   -1.4604    1.0000 </r>
       <r>   -1.4470    1.0000 </r>
       <r>   -1.4413    1.0000 </r>
       <r>   -1.4300    1.0000 </r>
       <r>   -1.4081    1.0000 </r>
       <r>   -1.3988    1.0000 </r>
       <r>   -1.3839    1.0000 </r>
       <r>   -1.3730    1.0000 </r>
       <r>   -1.3656    1.0000 </r>
       <r>   -1.3565    1.0000 </r>
       <r>   -1.3382    1.0000 </r>
       <r>   -1.3306    1.0000 </r>
       <r>   -1.3146    1.0000 </r>
       <r>   -1.3102    1.0000 </r>
       <r>   -1.2904    1.0000 </r>
       <r>   -1.2751    1.0000 </r>
       <r>   -1.2666    1.0000 </r>
       <r>   -1.2189    1.0000 </r>
       <r>   -1.2136    1.0000 </r>
       <r>   -1.1738    1.0000 </r>
       <r>   -1.1391    1.0000 </r>
       <r>   -1.1288    1.0000 </r>
       <r>   -1.1066    1.0000 </r>
       <r>   -1.0956    1.0000 </r>
       <r>   -1.0756    1.0000 </r>
       <r>   -1.0539    1.0000 </r>
       <r>   -1.0175    1.0000 </r>
       <r>   -0.9345    1.0000 </r>
       <r>   -0.8444    1.0000 </r>
       <r>   -0.8253    1.0000 </r>
       <r>   -0.6901    1.0000 </r>
       <r>   -0.5794    1.0000 </r>
       <r>   -0.5505    1.0000 </r>
       <r>   -0.3156    1.0000 </r>
       <r>    0.0345    1.0000 </r>
       <r>    2.6949    0.0000 </r>
       <r>    2.9343    0.0000 </r>
       <r>    2.9805    0.0000 </r>
       <r>    3.1097    0.0000 </r>
       <r>    3.1270    0.0000 </r>
       <r>    3.2992    0.0000 </r>
       <r>    3.3673    0.0000 </r>
       <r>    3.3915    0.0000 </r>
       <r>    4.0321    0.0000 </r>
       <r>    4.2865    0.0000 </r>
       <r>    4.3813    0.0000 </r>
       <r>    4.5628    0.0000 </r>
       <r>    4.6043    0.0000 </r>
       <r>    4.6080    0.0000 </r>
       <r>    4.6624    0.0000 </r>
       <r>    4.8247    0.0000 </r>
       <r>    4.9271    0.0000 </r>
       <r>    5.0470    0.0000 </r>
       <r>    5.2938    0.0000 </r>
       <r>    5.5296    0.0000 </r>
       <r>    5.6676    0.0000 </r>
       <r>    5.7844    0.0000 </r>
       <r>    5.8005    0.0000 </r>
       <r>    5.8582    0.0000 </r>
       <r>    6.0484    0.0000 </r>
       <r>    6.1161    0.0000 </r>
       <r>    6.1716    0.0000 </r>
       <r>    6.2068    0.0000 </r>
       <r>    6.2564    0.0000 </r>
       <r>    6.3242    0.0000 </r>
       <r>    6.3436    0.0000 </r>
       <r>    6.4154    0.0000 </r>
       <r>    6.5294    0.0000 </r>
       <r>    6.5890    0.0000 </r>
       <r>    6.6086    0.0000 </r>
       <r>    6.6313    0.0000 </r>
      </set>
      <set comment="kpoint 4">
       <r>  -20.8620    1.0000 </r>
       <r>  -20.8289    1.0000 </r>
       <r>  -20.7614    1.0000 </r>
       <r>  -20.7548    1.0000 </r>
       <r>  -20.7527    1.0000 </r>
       <r>  -20.7491    1.0000 </r>
       <r>  -20.7400    1.0000 </r>
       <r>  -20.6824    1.0000 </r>
       <r>  -16.7060    1.0000 </r>
       <r>  -16.6816    1.0000 </r>
       <r>  -16.6626    1.0000 </r>
       <r>  -16.6458    1.0000 </r>
       <r>  -16.6391    1.0000 </r>
       <r>  -16.6134    1.0000 </r>
       <r>  -16.5938    1.0000 </r>
       <r>  -16.5894    1.0000 </r>
       <r>  -16.5805    1.0000 </r>
       <r>  -16.5644    1.0000 </r>
       <r>  -16.5603    1.0000 </r>
       <r>  -16.5575    1.0000 </r>
       <r>  -16.5420    1.0000 </r>
       <r>  -16.5292    1.0000 </r>
       <r>  -16.4460    1.0000 </r>
       <r>  -16.4396    1.0000 </r>
       <r>  -16.4254    1.0000 </r>
       <r>  -16.4234    1.0000 </r>
       <r>  -16.4217    1.0000 </r>
       <r>  -16.4117    1.0000 </r>
       <r>  -16.3972    1.0000 </r>
       <r>  -16.3876    1.0000 </r>
       <r>  -16.3762    1.0000 </r>
       <r>  -16.3585    1.0000 </r>
       <r>  -16.3576    1.0000 </r>
       <r>  -16.3272    1.0000 </r>
       <r>  -16.3186    1.0000 </r>
       <r>  -16.3138    1.0000 </r>
       <r>  -16.2921    1.0000 </r>
       <r>  -16.2878    1.0000 </r>
       <r>  -16.2863    1.0000 </r>
       <r>  -16.2816    1.0000 </r>
       <r>  -16.2755    1.0000 </r>
       <r>  -16.2749    1.0000 </r>
       <r>  -16.2747    1.0000 </r>
       <r>  -16.2677    1.0000 </r>
       <r>  -16.2649    1.0000 </r>
       <r>  -16.2608    1.0000 </r>
       <r>  -16.2607    1.0000 </r>
       <r>  -16.2560    1.0000 </r>
       <r>  -14.4890    1.0000 </r>
       <r>  -14.4111    1.0000 </r>
       <r>  -14.2757    1.0000 </r>
       <r>  -14.2500    1.0000 </r>
       <r>  -14.2036    1.0000 </r>
       <r>  -14.1471    1.0000 </r>
       <r>  -14.1334    1.0000 </r>
       <r>  -14.1024    1.0000 </r>
       <r>  -14.0909    1.0000 </r>
       <r>  -14.0523    1.0000 </r>
       <r>  -14.0339    1.0000 </r>
       <r>  -14.0014    1.0000 </r>
       <r>  -13.9951    1.0000 </r>
       <r>  -13.9352    1.0000 </r>
       <r>  -13.9165    1.0000 </r>
       <r>  -13.9087    1.0000 </r>
       <r>  -13.8982    1.0000 </r>
       <r>  -13.8800    1.0000 </r>
       <r>  -13.8565    1.0000 </r>
       <r>  -13.8373    1.0000 </r>
       <r>  -13.8195    1.0000 </r>
       <r>  -13.7956    1.0000 </r>
       <r>  -13.7752    1.0000 </r>
       <r>   -7.8970    1.0000 </r>
       <r>   -7.7589    1.0000 </r>
       <r>   -7.7240    1.0000 </r>
       <r>   -7.7072    1.0000 </r>
       <r>   -7.4761    1.0000 </r>
       <r>   -7.3155    1.0000 </r>
       <r>   -7.2890    1.0000 </r>
       <r>   -7.2634    1.0000 </r>
       <r>   -7.2541    1.0000 </r>
       <r>   -7.2438    1.0000 </r>
       <r>   -7.2331    1.0000 </r>
       <r>   -7.2165    1.0000 </r>
       <r>   -7.2109    1.0000 </r>
       <r>   -7.1933    1.0000 </r>
       <r>   -7.1814    1.0000 </r>
       <r>   -7.1766    1.0000 </r>
       <r>   -7.1681    1.0000 </r>
       <r>   -7.1635    1.0000 </r>
       <r>   -7.1577    1.0000 </r>
       <r>   -7.1537    1.0000 </r>
       <r>   -7.1517    1.0000 </r>
       <r>   -7.1457    1.0000 </r>
       <r>   -7.1408    1.0000 </r>
       <r>   -7.1360    1.0000 </r>
       <r>   -7.1279    1.0000 </r>
       <r>   -7.1248    1.0000 </r>
       <r>   -7.1239    1.0000 </r>
       <r>   -7.1154    1.0000 </r>
       <r>   -7.1063    1.0000 </r>
       <r>   -7.0861    1.0000 </r>
       <r>   -7.0713    1.0000 </r>
       <r>   -7.0564    1.0000 </r>
       <r>   -3.1999    1.0000 </r>
       <r>   -3.1738    1.0000 </r>
       <r>   -3.1690    1.0000 </r>
       <r>   -3.1093    1.0000 </r>
       <r>   -2.9795    1.0000 </r>
       <r>   -2.7075    1.0000 </r>
       <r>   -2.6808    1.0000 </r>
       <r>   -2.6510    1.0000 </r>
       <r>   -2.5951    1.0000 </r>
       <r>   -2.5799    1.0000 </r>
       <r>   -2.5609    1.0000 </r>
       <r>   -2.4450    1.0000 </r>
       <r>   -2.3872    1.0000 </r>
       <r>   -2.3616    1.0000 </r>
       <r>   -2.3438    1.0000 </r>
       <r>   -2.3319    1.0000 </r>
       <r>   -2.2998    1.0000 </r>
       <r>   -2.2456    1.0000 </r>
       <r>   -2.2298    1.0000 </r>
       <r>   -2.1346    1.0000 </r>
       <r>   -2.0255    1.0000 </r>
       <r>   -2.0037    1.0000 </r>
       <r>   -1.9329    1.0000 </r>
       <r>   -1.9222    1.0000 </r>
       <r>   -1.8177    1.0000 </r>
       <r>   -1.7914    1.0000 </r>
       <r>   -1.7402    1.0000 </r>
       <r>   -1.7301    1.0000 </r>
       <r>   -1.7197    1.0000 </r>
       <r>   -1.6607    1.0000 </r>
       <r>   -1.6521    1.0000 </r>
       <r>   -1.6302    1.0000 </r>
       <r>   -1.6099    1.0000 </r>
       <r>   -1.5715    1.0000 </r>
       <r>   -1.5625    1.0000 </r>
       <r>   -1.5192    1.0000 </r>
       <r>   -1.4933    1.0000 </r>
       <r>   -1.4854    1.0000 </r>
       <r>   -1.4526    1.0000 </r>
       <r>   -1.4088    1.0000 </r>
       <r>   -1.4022    1.0000 </r>
       <r>   -1.3872    1.0000 </r>
       <r>   -1.3651    1.0000 </r>
       <r>   -1.3546    1.0000 </r>
       <r>   -1.3497    1.0000 </r>
       <r>   -1.2933    1.0000 </r>
       <r>   -1.2824    1.0000 </r>
       <r>   -1.2704    1.0000 </r>
       <r>   -1.2478    1.0000 </r>
       <r>   -1.2224    1.0000 </r>
       <r>   -1.2112    1.0000 </r>
       <r>   -1.1972    1.0000 </r>
       <r>   -1.1746    1.0000 </r>
       <r>   -1.1399    1.0000 </r>
       <r>   -1.1347    1.0000 </r>
       <r>   -1.1231    1.0000 </r>
       <r>   -1.1049    1.0000 </r>
       <r>   -1.0953    1.0000 </r>
       <r>   -1.0824    1.0000 </r>
       <r>   -1.0728    1.0000 </r>
       <r>   -1.0133    1.0000 </r>
       <r>   -0.9497    1.0000 </r>
       <r>   -0.9382    1.0000 </r>
       <r>   -0.8777    1.0000 </r>
       <r>   -0.8312    1.0000 </r>
       <r>   -0.7234    1.0000 </r>
       <r>   -0.5032    1.0000 </r>
       <r>   -0.4521    1.0000 </r>
       <r>   -0.3938    1.0000 </r>
       <r>    2.6484    0.0000 </r>
       <r>    3.0751    0.0000 </r>
       <r>    3.1782    0.0000 </r>
       <r>    3.1993    0.0000 </r>
       <r>    3.3625    0.0000 </r>
       <r>    3.9657    0.0000 </r>
       <r>    4.3150    0.0000 </r>
       <r>    4.3520    0.0000 </r>
       <r>    4.3697    0.0000 </r>
       <r>    4.4142    0.0000 </r>
       <r>    4.4546    0.0000 </r>
       <r>    4.5151    0.0000 </r>
       <r>    4.5202    0.0000 </r>
       <r>    4.5779    0.0000 </r>
       <r>    4.6449    0.0000 </r>
       <r>    4.7315    0.0000 </r>
       <r>    4.7584    0.0000 </r>
       <r>    4.7792    0.0000 </r>
       <r>    4.8107    0.0000 </r>
       <r>    4.8844    0.0000 </r>
       <r>    4.9221    0.0000 </r>
       <r>    5.5270    0.0000 </r>
       <r>    5.7011    0.0000 </r>
       <r>    5.8992    0.0000 </r>
       <r>    5.9648    0.0000 </r>
       <r>    5.9889    0.0000 </r>
       <r>    6.0487    0.0000 </r>
       <r>    6.0741    0.0000 </r>
       <r>    6.2409    0.0000 </r>
       <r>    6.2722    0.0000 </r>
       <r>    6.2920    0.0000 </r>
       <r>    6.3667    0.0000 </r>
       <r>    6.4177    0.0000 </r>
       <r>    6.4671    0.0000 </r>
       <r>    6.5021    0.0000 </r>
       <r>    6.6623    0.0000 </r>
      </set>
      <set comment="kpoint 5">
       <r>  -20.8620    1.0000 </r>
       <r>  -20.8289    1.0000 </r>
       <r>  -20.7613    1.0000 </r>
       <r>  -20.7548    1.0000 </r>
       <r>  -20.7530    1.0000 </r>
       <r>  -20.7489    1.0000 </r>
       <r>  -20.7400    1.0000 </r>
       <r>  -20.6824    1.0000 </r>
       <r>  -16.7074    1.0000 </r>
       <r>  -16.6830    1.0000 </r>
       <r>  -16.6672    1.0000 </r>
       <r>  -16.6459    1.0000 </r>
       <r>  -16.6398    1.0000 </r>
       <r>  -16.6149    1.0000 </r>
       <r>  -16.5937    1.0000 </r>
       <r>  -16.5894    1.0000 </r>
       <r>  -16.5808    1.0000 </r>
       <r>  -16.5644    1.0000 </r>
       <r>  -16.5603    1.0000 </r>
       <r>  -16.5575    1.0000 </r>
       <r>  -16.5419    1.0000 </r>
       <r>  -16.5292    1.0000 </r>
       <r>  -16.4563    1.0000 </r>
       <r>  -16.4459    1.0000 </r>
       <r>  -16.4279    1.0000 </r>
       <r>  -16.4219    1.0000 </r>
       <r>  -16.4114    1.0000 </r>
       <r>  -16.4044    1.0000 </r>
       <r>  -16.4030    1.0000 </r>
       <r>  -16.3782    1.0000 </r>
       <r>  -16.3724    1.0000 </r>
       <r>  -16.3572    1.0000 </r>
       <r>  -16.3526    1.0000 </r>
       <r>  -16.3272    1.0000 </r>
       <r>  -16.3186    1.0000 </r>
       <r>  -16.3137    1.0000 </r>
       <r>  -16.2921    1.0000 </r>
       <r>  -16.2878    1.0000 </r>
       <r>  -16.2863    1.0000 </r>
       <r>  -16.2816    1.0000 </r>
       <r>  -16.2754    1.0000 </r>
       <r>  -16.2751    1.0000 </r>
       <r>  -16.2746    1.0000 </r>
       <r>  -16.2677    1.0000 </r>
       <r>  -16.2650    1.0000 </r>
       <r>  -16.2608    1.0000 </r>
       <r>  -16.2607    1.0000 </r>
       <r>  -16.2560    1.0000 </r>
       <r>  -14.4909    1.0000 </r>
       <r>  -14.4108    1.0000 </r>
       <r>  -14.2892    1.0000 </r>
       <r>  -14.2077    1.0000 </r>
       <r>  -14.1684    1.0000 </r>
       <r>  -14.1407    1.0000 </r>
       <r>  -14.1010    1.0000 </r>
       <r>  -14.0972    1.0000 </r>
       <r>  -14.0784    1.0000 </r>
       <r>  -14.0653    1.0000 </r>
       <r>  -14.0577    1.0000 </r>
       <r>  -14.0380    1.0000 </r>
       <r>  -14.0119    1.0000 </r>
       <r>  -14.0059    1.0000 </r>
       <r>  -13.9684    1.0000 </r>
       <r>  -13.9476    1.0000 </r>
       <r>  -13.9116    1.0000 </r>
       <r>  -13.8553    1.0000 </r>
       <r>  -13.8488    1.0000 </r>
       <r>  -13.8236    1.0000 </r>
       <r>  -13.7953    1.0000 </r>
       <r>  -13.7649    1.0000 </r>
       <r>  -13.7356    1.0000 </r>
       <r>   -8.0664    1.0000 </r>
       <r>   -7.9672    1.0000 </r>
       <r>   -7.6605    1.0000 </r>
       <r>   -7.5101    1.0000 </r>
       <r>   -7.4600    1.0000 </r>
       <r>   -7.4400    1.0000 </r>
       <r>   -7.2954    1.0000 </r>
       <r>   -7.2633    1.0000 </r>
       <r>   -7.2589    1.0000 </r>
       <r>   -7.2343    1.0000 </r>
       <r>   -7.2279    1.0000 </r>
       <r>   -7.2070    1.0000 </r>
       <r>   -7.1946    1.0000 </r>
       <r>   -7.1833    1.0000 </r>
       <r>   -7.1725    1.0000 </r>
       <r>   -7.1704    1.0000 </r>
       <r>   -7.1605    1.0000 </r>
       <r>   -7.1575    1.0000 </r>
       <r>   -7.1522    1.0000 </r>
       <r>   -7.1494    1.0000 </r>
       <r>   -7.1481    1.0000 </r>
       <r>   -7.1426    1.0000 </r>
       <r>   -7.1389    1.0000 </r>
       <r>   -7.1341    1.0000 </r>
       <r>   -7.1276    1.0000 </r>
       <r>   -7.1253    1.0000 </r>
       <r>   -7.1163    1.0000 </r>
       <r>   -7.0965    1.0000 </r>
       <r>   -7.0807    1.0000 </r>
       <r>   -7.0756    1.0000 </r>
       <r>   -6.9428    1.0000 </r>
       <r>   -6.8468    1.0000 </r>
       <r>   -3.3475    1.0000 </r>
       <r>   -3.3243    1.0000 </r>
       <r>   -3.3046    1.0000 </r>
       <r>   -3.2407    1.0000 </r>
       <r>   -3.2053    1.0000 </r>
       <r>   -3.1702    1.0000 </r>
       <r>   -3.1162    1.0000 </r>
       <r>   -2.9652    1.0000 </r>
       <r>   -2.9195    1.0000 </r>
       <r>   -2.5640    1.0000 </r>
       <r>   -2.5104    1.0000 </r>
       <r>   -2.4613    1.0000 </r>
       <r>   -2.4254    1.0000 </r>
       <r>   -2.3918    1.0000 </r>
       <r>   -2.3547    1.0000 </r>
       <r>   -2.1583    1.0000 </r>
       <r>   -2.1360    1.0000 </r>
       <r>   -2.0592    1.0000 </r>
       <r>   -2.0486    1.0000 </r>
       <r>   -2.0256    1.0000 </r>
       <r>   -1.9684    1.0000 </r>
       <r>   -1.9168    1.0000 </r>
       <r>   -1.8624    1.0000 </r>
       <r>   -1.8388    1.0000 </r>
       <r>   -1.7582    1.0000 </r>
       <r>   -1.7489    1.0000 </r>
       <r>   -1.7033    1.0000 </r>
       <r>   -1.6665    1.0000 </r>
       <r>   -1.6300    1.0000 </r>
       <r>   -1.5847    1.0000 </r>
       <r>   -1.5629    1.0000 </r>
       <r>   -1.5588    1.0000 </r>
       <r>   -1.5238    1.0000 </r>
       <r>   -1.4954    1.0000 </r>
       <r>   -1.4858    1.0000 </r>
       <r>   -1.4812    1.0000 </r>
       <r>   -1.4626    1.0000 </r>
       <r>   -1.4411    1.0000 </r>
       <r>   -1.4260    1.0000 </r>
       <r>   -1.4102    1.0000 </r>
       <r>   -1.3814    1.0000 </r>
       <r>   -1.3692    1.0000 </r>
       <r>   -1.3562    1.0000 </r>
       <r>   -1.3512    1.0000 </r>
       <r>   -1.3395    1.0000 </r>
       <r>   -1.3282    1.0000 </r>
       <r>   -1.3066    1.0000 </r>
       <r>   -1.3014    1.0000 </r>
       <r>   -1.2739    1.0000 </r>
       <r>   -1.2451    1.0000 </r>
       <r>   -1.2119    1.0000 </r>
       <r>   -1.2062    1.0000 </r>
       <r>   -1.1976    1.0000 </r>
       <r>   -1.1870    1.0000 </r>
       <r>   -1.1592    1.0000 </r>
       <r>   -1.1493    1.0000 </r>
       <r>   -1.1194    1.0000 </r>
       <r>   -1.1085    1.0000 </r>
       <r>   -1.0756    1.0000 </r>
       <r>   -1.0486    1.0000 </r>
       <r>   -1.0091    1.0000 </r>
       <r>   -0.8977    1.0000 </r>
       <r>   -0.8630    1.0000 </r>
       <r>   -0.7365    1.0000 </r>
       <r>   -0.5887    1.0000 </r>
       <r>   -0.5384    1.0000 </r>
       <r>   -0.4387    1.0000 </r>
       <r>   -0.0878    1.0000 </r>
       <r>    0.0673    1.0000 </r>
       <r>    2.4711    0.0000 </r>
       <r>    2.9065    0.0000 </r>
       <r>    2.9533    0.0000 </r>
       <r>    2.9700    0.0000 </r>
       <r>    3.1420    0.0000 </r>
       <r>    3.2401    0.0000 </r>
       <r>    3.3062    0.0000 </r>
       <r>    3.3495    0.0000 </r>
       <r>    3.4638    0.0000 </r>
       <r>    3.8774    0.0000 </r>
       <r>    4.2468    0.0000 </r>
       <r>    4.3705    0.0000 </r>
       <r>    4.5263    0.0000 </r>
       <r>    4.6401    0.0000 </r>
       <r>    4.7807    0.0000 </r>
       <r>    4.8393    0.0000 </r>
       <r>    4.9791    0.0000 </r>
       <r>    5.4836    0.0000 </r>
       <r>    5.6038    0.0000 </r>
       <r>    5.6781    0.0000 </r>
       <r>    5.7740    0.0000 </r>
       <r>    5.8656    0.0000 </r>
       <r>    5.9136    0.0000 </r>
       <r>    5.9997    0.0000 </r>
       <r>    6.0642    0.0000 </r>
       <r>    6.1179    0.0000 </r>
       <r>    6.1482    0.0000 </r>
       <r>    6.2512    0.0000 </r>
       <r>    6.2880    0.0000 </r>
       <r>    6.3273    0.0000 </r>
       <r>    6.3422    0.0000 </r>
       <r>    6.4206    0.0000 </r>
       <r>    6.4593    0.0000 </r>
       <r>    6.4968    0.0000 </r>
       <r>    6.5550    0.0000 </r>
       <r>    6.6175    0.0000 </r>
      </set>
      <set comment="kpoint 6">
       <r>  -20.8620    1.0000 </r>
       <r>  -20.8289    1.0000 </r>
       <r>  -20.7613    1.0000 </r>
       <r>  -20.7547    1.0000 </r>
       <r>  -20.7528    1.0000 </r>
       <r>  -20.7491    1.0000 </r>
       <r>  -20.7400    1.0000 </r>
       <r>  -20.6824    1.0000 </r>
       <r>  -16.7071    1.0000 </r>
       <r>  -16.6825    1.0000 </r>
       <r>  -16.6647    1.0000 </r>
       <r>  -16.6459    1.0000 </r>
       <r>  -16.6396    1.0000 </r>
       <r>  -16.6154    1.0000 </r>
       <r>  -16.5938    1.0000 </r>
       <r>  -16.5894    1.0000 </r>
       <r>  -16.5807    1.0000 </r>
       <r>  -16.5644    1.0000 </r>
       <r>  -16.5603    1.0000 </r>
       <r>  -16.5575    1.0000 </r>
       <r>  -16.5419    1.0000 </r>
       <r>  -16.5292    1.0000 </r>
       <r>  -16.4561    1.0000 </r>
       <r>  -16.4459    1.0000 </r>
       <r>  -16.4245    1.0000 </r>
       <r>  -16.4091    1.0000 </r>
       <r>  -16.4051    1.0000 </r>
       <r>  -16.4008    1.0000 </r>
       <r>  -16.3891    1.0000 </r>
       <r>  -16.3827    1.0000 </r>
       <r>  -16.3794    1.0000 </r>
       <r>  -16.3736    1.0000 </r>
       <r>  -16.3699    1.0000 </r>
       <r>  -16.3272    1.0000 </r>
       <r>  -16.3186    1.0000 </r>
       <r>  -16.3138    1.0000 </r>
       <r>  -16.2921    1.0000 </r>
       <r>  -16.2878    1.0000 </r>
       <r>  -16.2863    1.0000 </r>
       <r>  -16.2816    1.0000 </r>
       <r>  -16.2754    1.0000 </r>
       <r>  -16.2750    1.0000 </r>
       <r>  -16.2746    1.0000 </r>
       <r>  -16.2677    1.0000 </r>
       <r>  -16.2650    1.0000 </r>
       <r>  -16.2608    1.0000 </r>
       <r>  -16.2607    1.0000 </r>
       <r>  -16.2560    1.0000 </r>
       <r>  -14.4871    1.0000 </r>
       <r>  -14.4087    1.0000 </r>
       <r>  -14.2733    1.0000 </r>
       <r>  -14.2360    1.0000 </r>
       <r>  -14.1893    1.0000 </r>
       <r>  -14.1769    1.0000 </r>
       <r>  -14.1086    1.0000 </r>
       <r>  -14.1013    1.0000 </r>
       <r>  -14.0951    1.0000 </r>
       <r>  -14.0751    1.0000 </r>
       <r>  -14.0595    1.0000 </r>
       <r>  -14.0069    1.0000 </r>
       <r>  -13.9984    1.0000 </r>
       <r>  -13.9825    1.0000 </r>
       <r>  -13.9020    1.0000 </r>
       <r>  -13.8877    1.0000 </r>
       <r>  -13.8778    1.0000 </r>
       <r>  -13.8623    1.0000 </r>
       <r>  -13.8383    1.0000 </r>
       <r>  -13.8327    1.0000 </r>
       <r>  -13.8224    1.0000 </r>
       <r>  -13.8158    1.0000 </r>
       <r>  -13.7729    1.0000 </r>
       <r>   -7.9625    1.0000 </r>
       <r>   -7.8271    1.0000 </r>
       <r>   -7.7484    1.0000 </r>
       <r>   -7.7081    1.0000 </r>
       <r>   -7.3396    1.0000 </r>
       <r>   -7.3065    1.0000 </r>
       <r>   -7.2782    1.0000 </r>
       <r>   -7.2702    1.0000 </r>
       <r>   -7.2545    1.0000 </r>
       <r>   -7.2458    1.0000 </r>
       <r>   -7.2312    1.0000 </r>
       <r>   -7.2179    1.0000 </r>
       <r>   -7.2039    1.0000 </r>
       <r>   -7.1880    1.0000 </r>
       <r>   -7.1827    1.0000 </r>
       <r>   -7.1774    1.0000 </r>
       <r>   -7.1654    1.0000 </r>
       <r>   -7.1590    1.0000 </r>
       <r>   -7.1575    1.0000 </r>
       <r>   -7.1509    1.0000 </r>
[...]
        <r>  0.0000  0.0015  0.0001 </r>
        <r>  0.0000  0.0007  0.0009 </r>
        <r>  0.0010  0.0026  0.0006 </r>
        <r>  0.0002  0.0001  0.0011 </r>
        <r>  0.0014  0.0016  0.0011 </r>
        <r>  0.0000  0.0026  0.0007 </r>
        <r>  0.0051  0.0057  0.0015 </r>
        <r>  0.0000  0.0015  0.0002 </r>
        <r>  0.0001  0.0020  0.0003 </r>
       </set>
       <set comment="band 199">
        <r>  0.0018  0.0006  0.0078 </r>
        <r>  0.0020  0.0002  0.0134 </r>
        <r>  0.0001  0.0005  0.0093 </r>
        <r>  0.0118  0.0013  0.0068 </r>
        <r>  0.0015  0.0007  0.0041 </r>
        <r>  0.0011  0.0010  0.0077 </r>
        <r>  0.0001  0.0010  0.0025 </r>
        <r>  0.0012  0.0006  0.0099 </r>
        <r>  0.0000  0.0004  0.0001 </r>
        <r>  0.0000  0.0041  0.0002 </r>
        <r>  0.0000  0.0011  0.0001 </r>
        <r>  0.0000  0.0018  0.0001 </r>
        <r>  0.0000  0.0076  0.0005 </r>
        <r>  0.0002  0.0024  0.0003 </r>
        <r>  0.0000  0.0054  0.0002 </r>
        <r>  0.0003  0.0114  0.0004 </r>
        <r>  0.0011  0.0014  0.0029 </r>
        <r>  0.0006  0.0020  0.0012 </r>
        <r>  0.0000  0.0017  0.0008 </r>
        <r>  0.0001  0.0053  0.0003 </r>
        <r>  0.0002  0.0011  0.0005 </r>
        <r>  0.0006  0.0040  0.0013 </r>
        <r>  0.0000  0.0009  0.0017 </r>
        <r>  0.0018  0.0005  0.0022 </r>
        <r>  0.0001  0.0016  0.0012 </r>
        <r>  0.0009  0.0008  0.0014 </r>
        <r>  0.0005  0.0007  0.0009 </r>
        <r>  0.0001  0.0013  0.0010 </r>
        <r>  0.0002  0.0010  0.0002 </r>
        <r>  0.0004  0.0027  0.0002 </r>
        <r>  0.0000  0.0003  0.0012 </r>
        <r>  0.0007  0.0031  0.0005 </r>
        <r>  0.0001  0.0005  0.0011 </r>
        <r>  0.0004  0.0016  0.0007 </r>
        <r>  0.0005  0.0014  0.0003 </r>
        <r>  0.0051  0.0023  0.0023 </r>
        <r>  0.0010  0.0015  0.0009 </r>
        <r>  0.0013  0.0059  0.0013 </r>
        <r>  0.0000  0.0018  0.0014 </r>
       </set>
       <set comment="band 200">
        <r>  0.0017  0.0005  0.0032 </r>
        <r>  0.0003  0.0003  0.0058 </r>
        <r>  0.0004  0.0011  0.0057 </r>
        <r>  0.0034  0.0001  0.0102 </r>
        <r>  0.0004  0.0002  0.0047 </r>
        <r>  0.0037  0.0009  0.0079 </r>
        <r>  0.0071  0.0013  0.0164 </r>
        <r>  0.0023  0.0009  0.0051 </r>
        <r>  0.0000  0.0047  0.0001 </r>
        <r>  0.0000  0.0003  0.0001 </r>
        <r>  0.0000  0.0013  0.0002 </r>
        <r>  0.0000  0.0017  0.0002 </r>
        <r>  0.0001  0.0149  0.0001 </r>
        <r>  0.0000  0.0091  0.0003 </r>
        <r>  0.0000  0.0004  0.0005 </r>
        <r>  0.0001  0.0066  0.0004 </r>
        <r>  0.0000  0.0025  0.0013 </r>
        <r>  0.0002  0.0045  0.0011 </r>
        <r>  0.0002  0.0027  0.0010 </r>
        <r>  0.0000  0.0020  0.0005 </r>
        <r>  0.0016  0.0010  0.0014 </r>
        <r>  0.0001  0.0033  0.0031 </r>
        <r>  0.0000  0.0007  0.0009 </r>
        <r>  0.0001  0.0013  0.0005 </r>
        <r>  0.0006  0.0026  0.0009 </r>
        <r>  0.0011  0.0018  0.0018 </r>
        <r>  0.0000  0.0020  0.0015 </r>
        <r>  0.0000  0.0030  0.0000 </r>
        <r>  0.0008  0.0024  0.0008 </r>
        <r>  0.0000  0.0009  0.0009 </r>
        <r>  0.0000  0.0007  0.0002 </r>
        <r>  0.0023  0.0001  0.0014 </r>
        <r>  0.0000  0.0008  0.0005 </r>
        <r>  0.0007  0.0025  0.0011 </r>
        <r>  0.0013  0.0050  0.0021 </r>
        <r>  0.0001  0.0015  0.0005 </r>
        <r>  0.0000  0.0053  0.0011 </r>
        <r>  0.0029  0.0026  0.0021 </r>
        <r>  0.0009  0.0007  0.0009 </r>
       </set>
       <set comment="band 201">
        <r>  0.0052  0.0004  0.0027 </r>
        <r>  0.0008  0.0009  0.0032 </r>
        <r>  0.0007  0.0009  0.0060 </r>
        <r>  0.0021  0.0008  0.0026 </r>
        <r>  0.0130  0.0009  0.0082 </r>
        <r>  0.0009  0.0009  0.0038 </r>
        <r>  0.0003  0.0004  0.0093 </r>
        <r>  0.0037  0.0004  0.0080 </r>
        <r>  0.0000  0.0046  0.0000 </r>
        <r>  0.0001  0.0109  0.0000 </r>
        <r>  0.0000  0.0025  0.0003 </r>
        <r>  0.0000  0.0029  0.0001 </r>
        <r>  0.0000  0.0157  0.0003 </r>
        <r>  0.0000  0.0038  0.0002 </r>
        <r>  0.0000  0.0058  0.0001 </r>
        <r>  0.0000  0.0060  0.0002 </r>
        <r>  0.0013  0.0050  0.0025 </r>
        <r>  0.0001  0.0024  0.0009 </r>
        <r>  0.0007  0.0033  0.0005 </r>
        <r>  0.0001  0.0046  0.0004 </r>
        <r>  0.0004  0.0022  0.0006 </r>
        <r>  0.0000  0.0020  0.0008 </r>
        <r>  0.0012  0.0025  0.0019 </r>
        <r>  0.0011  0.0019  0.0022 </r>
        <r>  0.0007  0.0023  0.0014 </r>
        <r>  0.0007  0.0005  0.0011 </r>
        <r>  0.0014  0.0038  0.0020 </r>
        <r>  0.0002  0.0027  0.0004 </r>
        <r>  0.0000  0.0061  0.0002 </r>
        <r>  0.0000  0.0020  0.0006 </r>
        <r>  0.0025  0.0013  0.0018 </r>
        <r>  0.0005  0.0017  0.0004 </r>
        <r>  0.0024  0.0040  0.0015 </r>
        <r>  0.0010  0.0011  0.0003 </r>
        <r>  0.0000  0.0029  0.0003 </r>
        <r>  0.0004  0.0033  0.0026 </r>
        <r>  0.0003  0.0017  0.0014 </r>
        <r>  0.0001  0.0018  0.0011 </r>
        <r>  0.0000  0.0015  0.0009 </r>
       </set>
       <set comment="band 202">
        <r>  0.0018  0.0002  0.0048 </r>
        <r>  0.0005  0.0005  0.0046 </r>
        <r>  0.0100  0.0006  0.0069 </r>
        <r>  0.0000  0.0014  0.0095 </r>
        <r>  0.0000  0.0002  0.0154 </r>
        <r>  0.0006  0.0003  0.0026 </r>
        <r>  0.0098  0.0012  0.0011 </r>
        <r>  0.0012  0.0014  0.0017 </r>
        <r>  0.0000  0.0063  0.0000 </r>
        <r>  0.0000  0.0047  0.0001 </r>
        <r>  0.0000  0.0033  0.0001 </r>
        <r>  0.0000  0.0105  0.0003 </r>
        <r>  0.0000  0.0045  0.0001 </r>
        <r>  0.0000  0.0084  0.0005 </r>
        <r>  0.0000  0.0076  0.0002 </r>
        <r>  0.0000  0.0079  0.0003 </r>
        <r>  0.0001  0.0024  0.0011 </r>
        <r>  0.0030  0.0020  0.0036 </r>
        <r>  0.0001  0.0012  0.0007 </r>
        <r>  0.0001  0.0034  0.0005 </r>
        <r>  0.0004  0.0017  0.0020 </r>
        <r>  0.0030  0.0018  0.0024 </r>
        <r>  0.0001  0.0008  0.0002 </r>
        <r>  0.0003  0.0089  0.0007 </r>
        <r>  0.0003  0.0003  0.0008 </r>
        <r>  0.0018  0.0039  0.0024 </r>
        <r>  0.0006  0.0005  0.0012 </r>
        <r>  0.0003  0.0036  0.0005 </r>
        <r>  0.0000  0.0015  0.0006 </r>
        <r>  0.0000  0.0028  0.0005 </r>
        <r>  0.0002  0.0002  0.0008 </r>
        <r>  0.0010  0.0007  0.0007 </r>
        <r>  0.0006  0.0018  0.0010 </r>
        <r>  0.0007  0.0020  0.0015 </r>
        <r>  0.0003  0.0030  0.0014 </r>
        <r>  0.0009  0.0061  0.0006 </r>
        <r>  0.0007  0.0014  0.0010 </r>
        <r>  0.0014  0.0020  0.0011 </r>
        <r>  0.0007  0.0011  0.0005 </r>
       </set>
       <set comment="band 203">
        <r>  0.0047  0.0011  0.0064 </r>
        <r>  0.0026  0.0019  0.0170 </r>
        <r>  0.0001  0.0003  0.0049 </r>
        <r>  0.0005  0.0005  0.0034 </r>
        <r>  0.0057  0.0003  0.0077 </r>
        <r>  0.0014  0.0012  0.0234 </r>
        <r>  0.0004  0.0001  0.0020 </r>
        <r>  0.0022  0.0004  0.0026 </r>
        <r>  0.0000  0.0068  0.0002 </r>
        <r>  0.0000  0.0018  0.0002 </r>
        <r>  0.0000  0.0026  0.0001 </r>
        <r>  0.0001  0.0041  0.0003 </r>
        <r>  0.0000  0.0057  0.0000 </r>
        <r>  0.0000  0.0026  0.0002 </r>
        <r>  0.0000  0.0058  0.0001 </r>
        <r>  0.0000  0.0205  0.0001 </r>
        <r>  0.0000  0.0037  0.0005 </r>
        <r>  0.0002  0.0040  0.0001 </r>
        <r>  0.0015  0.0026  0.0042 </r>
        <r>  0.0016  0.0014  0.0037 </r>
        <r>  0.0002  0.0034  0.0003 </r>
        <r>  0.0003  0.0046  0.0009 </r>
        <r>  0.0017  0.0006  0.0041 </r>
        <r>  0.0008  0.0035  0.0019 </r>
        <r>  0.0003  0.0024  0.0009 </r>
        <r>  0.0004  0.0005  0.0003 </r>
        <r>  0.0003  0.0015  0.0004 </r>
        <r>  0.0013  0.0007  0.0016 </r>
        <r>  0.0000  0.0008  0.0011 </r>
        <r>  0.0012  0.0001  0.0004 </r>
        <r>  0.0000  0.0018  0.0001 </r>
        <r>  0.0000  0.0035  0.0017 </r>
        <r>  0.0005  0.0001  0.0004 </r>
        <r>  0.0007  0.0027  0.0008 </r>
        <r>  0.0002  0.0013  0.0007 </r>
        <r>  0.0000  0.0014  0.0002 </r>
        <r>  0.0003  0.0027  0.0006 </r>
        <r>  0.0001  0.0027  0.0009 </r>
        <r>  0.0001  0.0009  0.0018 </r>
       </set>
       <set comment="band 204">
        <r>  0.0001  0.0019  0.0258 </r>
        <r>  0.0020  0.0003  0.0065 </r>
        <r>  0.0006  0.0007  0.0083 </r>
        <r>  0.0001  0.0002  0.0105 </r>
        <r>  0.0008  0.0003  0.0132 </r>
        <r>  0.0000  0.0004  0.0134 </r>
        <r>  0.0002  0.0006  0.0076 </r>
        <r>  0.0001  0.0003  0.0179 </r>
        <r>  0.0000  0.0026  0.0004 </r>
        <r>  0.0001  0.0003  0.0000 </r>
        <r>  0.0000  0.0024  0.0006 </r>
        <r>  0.0001  0.0009  0.0008 </r>
        <r>  0.0002  0.0051  0.0007 </r>
        <r>  0.0000  0.0064  0.0009 </r>
        <r>  0.0001  0.0004  0.0005 </r>
        <r>  0.0000  0.0063  0.0012 </r>
        <r>  0.0004  0.0006  0.0008 </r>
        <r>  0.0003  0.0015  0.0017 </r>
        <r>  0.0010  0.0008  0.0010 </r>
        <r>  0.0000  0.0008  0.0019 </r>
        <r>  0.0004  0.0016  0.0009 </r>
        <r>  0.0003  0.0032  0.0016 </r>
        <r>  0.0002  0.0046  0.0016 </r>
        <r>  0.0003  0.0029  0.0016 </r>
        <r>  0.0001  0.0024  0.0023 </r>
        <r>  0.0001  0.0007  0.0005 </r>
        <r>  0.0000  0.0001  0.0011 </r>
        <r>  0.0001  0.0002  0.0014 </r>
        <r>  0.0001  0.0004  0.0009 </r>
        <r>  0.0006  0.0005  0.0012 </r>
        <r>  0.0000  0.0010  0.0018 </r>
        <r>  0.0000  0.0007  0.0006 </r>
        <r>  0.0005  0.0006  0.0007 </r>
        <r>  0.0004  0.0006  0.0009 </r>
        <r>  0.0005  0.0006  0.0006 </r>
        <r>  0.0004  0.0007  0.0009 </r>
        <r>  0.0002  0.0022  0.0017 </r>
        <r>  0.0000  0.0039  0.0015 </r>
        <r>  0.0002  0.0004  0.0024 </r>
       </set>
       <set comment="band 205">
        <r>  0.0031  0.0012  0.0047 </r>
        <r>  0.0061  0.0005  0.0038 </r>
        <r>  0.0013  0.0020  0.0036 </r>
        <r>  0.0027  0.0008  0.0091 </r>
        <r>  0.0000  0.0021  0.0089 </r>
        <r>  0.0026  0.0005  0.0116 </r>
        <r>  0.0031  0.0007  0.0104 </r>
        <r>  0.0013  0.0005  0.0112 </r>
        <r>  0.0000  0.0022  0.0001 </r>
        <r>  0.0000  0.0056  0.0004 </r>
        <r>  0.0000  0.0045  0.0003 </r>
        <r>  0.0000  0.0048  0.0001 </r>
        <r>  0.0000  0.0036  0.0004 </r>
        <r>  0.0000  0.0031  0.0003 </r>
        <r>  0.0000  0.0088  0.0002 </r>
        <r>  0.0000  0.0067  0.0003 </r>
        <r>  0.0008  0.0015  0.0006 </r>
        <r>  0.0004  0.0013  0.0013 </r>
        <r>  0.0029  0.0013  0.0023 </r>
        <r>  0.0001  0.0019  0.0014 </r>
        <r>  0.0007  0.0063  0.0015 </r>
        <r>  0.0011  0.0016  0.0023 </r>
        <r>  0.0007  0.0027  0.0013 </r>
        <r>  0.0000  0.0043  0.0003 </r>
        <r>  0.0006  0.0003  0.0011 </r>
        <r>  0.0011  0.0012  0.0015 </r>
        <r>  0.0014  0.0012  0.0028 </r>
        <r>  0.0020  0.0015  0.0014 </r>
        <r>  0.0010  0.0008  0.0013 </r>
        <r>  0.0010  0.0013  0.0015 </r>
        <r>  0.0001  0.0047  0.0002 </r>
        <r>  0.0000  0.0021  0.0005 </r>
        <r>  0.0001  0.0051  0.0003 </r>
        <r>  0.0002  0.0018  0.0002 </r>
        <r>  0.0005  0.0022  0.0012 </r>
        <r>  0.0006  0.0012  0.0011 </r>
        <r>  0.0009  0.0017  0.0013 </r>
        <r>  0.0004  0.0021  0.0010 </r>
        <r>  0.0002  0.0003  0.0005 </r>
       </set>
       <set comment="band 206">
        <r>  0.0024  0.0001  0.0132 </r>
        <r>  0.0003  0.0001  0.0281 </r>
        <r>  0.0016  0.0011  0.0056 </r>
        <r>  0.0016  0.0002  0.0044 </r>
        <r>  0.0008  0.0009  0.0090 </r>
        <r>  0.0057  0.0010  0.0141 </r>
        <r>  0.0015  0.0004  0.0099 </r>
        <r>  0.0000  0.0001  0.0065 </r>
        <r>  0.0000  0.0044  0.0005 </r>
        <r>  0.0000  0.0033  0.0006 </r>
        <r>  0.0000  0.0122  0.0001 </r>
        <r>  0.0000  0.0149  0.0001 </r>
        <r>  0.0001  0.0021  0.0003 </r>
        <r>  0.0000  0.0025  0.0008 </r>
        <r>  0.0000  0.0038  0.0002 </r>
        <r>  0.0000  0.0009  0.0005 </r>
        <r>  0.0001  0.0027  0.0006 </r>
        <r>  0.0001  0.0009  0.0002 </r>
        <r>  0.0000  0.0031  0.0008 </r>
        <r>  0.0005  0.0023  0.0004 </r>
        <r>  0.0004  0.0005  0.0004 </r>
        <r>  0.0000  0.0018  0.0002 </r>
        <r>  0.0017  0.0013  0.0016 </r>
        <r>  0.0005  0.0002  0.0010 </r>
        <r>  0.0007  0.0009  0.0017 </r>
        <r>  0.0004  0.0009  0.0012 </r>
        <r>  0.0000  0.0042  0.0007 </r>
        <r>  0.0001  0.0042  0.0005 </r>
        <r>  0.0035  0.0007  0.0051 </r>
        <r>  0.0005  0.0017  0.0014 </r>
        <r>  0.0001  0.0054  0.0021 </r>
        <r>  0.0013  0.0021  0.0044 </r>
        <r>  0.0002  0.0012  0.0005 </r>
        <r>  0.0006  0.0015  0.0012 </r>
        <r>  0.0000  0.0007  0.0014 </r>
        <r>  0.0002  0.0006  0.0009 </r>
        <r>  0.0002  0.0003  0.0010 </r>
        <r>  0.0001  0.0011  0.0016 </r>
        <r>  0.0003  0.0008  0.0009 </r>
       </set>
       <set comment="band 207">
        <r>  0.0005  0.0003  0.0152 </r>
        <r>  0.0008  0.0004  0.0286 </r>
        <r>  0.0000  0.0002  0.0060 </r>
        <r>  0.0003  0.0007  0.0307 </r>
        <r>  0.0000  0.0002  0.0121 </r>
        <r>  0.0000  0.0003  0.0024 </r>
        <r>  0.0000  0.0010  0.0224 </r>
        <r>  0.0007  0.0002  0.0090 </r>
        <r>  0.0000  0.0039  0.0001 </r>
        <r>  0.0000  0.0066  0.0003 </r>
        <r>  0.0000  0.0006  0.0011 </r>
        <r>  0.0000  0.0024  0.0003 </r>
        <r>  0.0000  0.0008  0.0006 </r>
        <r>  0.0001  0.0055  0.0002 </r>
        <r>  0.0000  0.0052  0.0003 </r>
        <r>  0.0000  0.0022  0.0003 </r>
        <r>  0.0000  0.0011  0.0011 </r>
        <r>  0.0005  0.0016  0.0010 </r>
        <r>  0.0002  0.0023  0.0009 </r>
        <r>  0.0001  0.0002  0.0014 </r>
        <r>  0.0007  0.0003  0.0011 </r>
        <r>  0.0001  0.0010  0.0001 </r>
        <r>  0.0000  0.0001  0.0004 </r>
        <r>  0.0000  0.0004  0.0003 </r>
        <r>  0.0006  0.0009  0.0025 </r>
        <r>  0.0013  0.0006  0.0037 </r>
        <r>  0.0007  0.0022  0.0034 </r>
        <r>  0.0001  0.0022  0.0007 </r>
        <r>  0.0000  0.0007  0.0012 </r>
        <r>  0.0002  0.0017  0.0016 </r>
        <r>  0.0004  0.0010  0.0023 </r>
        <r>  0.0001  0.0013  0.0004 </r>
        <r>  0.0000  0.0004  0.0020 </r>
        <r>  0.0005  0.0019  0.0052 </r>
        <r>  0.0001  0.0005  0.0006 </r>
        <r>  0.0000  0.0026  0.0010 </r>
        <r>  0.0001  0.0010  0.0026 </r>
        <r>  0.0006  0.0015  0.0007 </r>
        <r>  0.0000  0.0005  0.0004 </r>
       </set>
       <set comment="band 208">
        <r>  0.0004  0.0004  0.0123 </r>
        <r>  0.0009  0.0013  0.0179 </r>
        <r>  0.0015  0.0010  0.0053 </r>
        <r>  0.0000  0.0004  0.0179 </r>
        <r>  0.0001  0.0017  0.0135 </r>
        <r>  0.0023  0.0002  0.0070 </r>
        <r>  0.0002  0.0006  0.0122 </r>
        <r>  0.0003  0.0004  0.0251 </r>
        <r>  0.0000  0.0052  0.0004 </r>
        <r>  0.0000  0.0036  0.0005 </r>
        <r>  0.0000  0.0033  0.0001 </r>
        <r>  0.0001  0.0014  0.0003 </r>
        <r>  0.0001  0.0016  0.0002 </r>
        <r>  0.0001  0.0070  0.0003 </r>
        <r>  0.0000  0.0011  0.0001 </r>
        <r>  0.0000  0.0018  0.0002 </r>
        <r>  0.0000  0.0012  0.0005 </r>
        <r>  0.0001  0.0032  0.0022 </r>
        <r>  0.0006  0.0014  0.0024 </r>
        <r>  0.0002  0.0022  0.0009 </r>
        <r>  0.0002  0.0013  0.0016 </r>
        <r>  0.0003  0.0004  0.0014 </r>
        <r>  0.0000  0.0026  0.0006 </r>
        <r>  0.0008  0.0008  0.0016 </r>
        <r>  0.0005  0.0014  0.0009 </r>
        <r>  0.0001  0.0007  0.0009 </r>
        <r>  0.0001  0.0014  0.0012 </r>
        <r>  0.0005  0.0016  0.0015 </r>
        <r>  0.0017  0.0006  0.0025 </r>
        <r>  0.0005  0.0019  0.0020 </r>
        <r>  0.0003  0.0027  0.0020 </r>
        <r>  0.0003  0.0015  0.0010 </r>
        <r>  0.0001  0.0016  0.0014 </r>
        <r>  0.0002  0.0018  0.0011 </r>
        <r>  0.0000  0.0014  0.0004 </r>
        <r>  0.0020  0.0023  0.0023 </r>
        <r>  0.0015  0.0006  0.0014 </r>
        <r>  0.0000  0.0008  0.0005 </r>
        <r>  0.0000  0.0010  0.0005 </r>
       </set>
      </set>
     </set>
    </set>
   </array>
  </projected>
 </calculation>
 <structure name="finalpos" >
  <crystal>
   <varray name="basis" >
    <v>       8.45648900       0.00000000       8.04030100 </v>
    <v>       0.00000000      11.72984700       0.00000000 </v>
    <v>      -8.45648900       0.00000000       8.04030100 </v>
   </varray>
   <i name="volume">   1595.08833419 </i>
   <varray name="rec_basis" >
    <v>       0.05912619      -0.00000000       0.06218673 </v>
    <v>       0.00000000       0.08525260      -0.00000000 </v>
    <v>      -0.05912619       0.00000000       0.06218673 </v>
   </varray>
  </crystal>
  <varray name="positions" >
   <v>       0.26587500       0.23810200       0.19657800 </v>
   <v>       0.77426600       0.23051300       0.73911400 </v>
   <v>       0.70887100       0.77509600       0.26107200 </v>
   <v>       0.22343200       0.75174900       0.77763700 </v>
   <v>       0.26239700       0.24486700       0.72945000 </v>
   <v>       0.80712700       0.24845000       0.22793400 </v>
   <v>       0.72855400       0.75587600       0.78690900 </v>
   <v>       0.22263500       0.75762100       0.29795700 </v>
   <v>       0.00591100       0.99492500       0.00025900 </v>
   <v>       0.49311000       0.00424500       0.49951600 </v>
   <v>       0.50075400       0.99965200       0.00052600 </v>
   <v>       0.99431500       0.00008300       0.50043100 </v>
   <v>       0.51796600       0.49433600       0.00177700 </v>
   <v>       0.99164600       0.50364900       0.49445800 </v>
   <v>       0.01118900       0.50107400       0.99600200 </v>
   <v>       0.48647600       0.49728400       0.51408000 </v>
   <v>       0.48226400       0.74597800       0.98015800 </v>
   <v>       0.95653200       0.75102500       0.45971400 </v>
   <v>       0.98870900       0.24835900       0.97378000 </v>
   <v>       0.43571500       0.25364500       0.47487900 </v>
   <v>       0.04944200       0.74797700       0.03046600 </v>
   <v>       0.52423200       0.74827300       0.52174900 </v>
   <v>       0.54056600       0.24881600       0.04483400 </v>
   <v>       0.00570400       0.25362200       0.53233200 </v>
   <v>       0.26447400       0.46732700       0.95355900 </v>
   <v>       0.94609200       0.53053700       0.74029000 </v>
   <v>       0.53978900       0.02980600       0.75262200 </v>
   <v>       0.04850000       0.02834500       0.25336000 </v>
   <v>       0.75733900       0.97817900       0.03699800 </v>
   <v>       0.24550100       0.96406500       0.55093500 </v>
   <v>       0.25292500       0.02900200       0.94715700 </v>
   <v>       0.74066400       0.04126000       0.45381500 </v>
   <v>       0.44359800       0.96911000       0.24816100 </v>
   <v>       0.95529800       0.96312600       0.74830000 </v>
   <v>       0.76599100       0.54079800       0.04458700 </v>
   <v>       0.23123000       0.53702200       0.54639800 </v>
   <v>       0.56155200       0.46483700       0.76034300 </v>
   <v>       0.06031500       0.46815600       0.24845000 </v>
   <v>       0.62860700       0.48854600       0.33711200 </v>
  </varray>
 </structure>
</modeling>
