 vasp.5.4.4.18Apr17-6-g9f103f2a35 (build Jun 22 2020 09:36:46) gamma-only        
 executed on tx2_gcc-7.3_libsci-1 date 2020.11.07  09:02:35
 running on  256 total cores
 distrk:  each k-point on  256 cores,    1 groups
 distr:  one band on NCORES_PER_BAND=  32 cores,    8 groups


--------------------------------------------------------------------------------------------------------


 INCAR:
 POTCAR:    PAW_PBE Cs_sv 08Apr2002               
 POTCAR:    PAW_PBE Pb_d 06Sep2000                
 POTCAR:    PAW_PBE Br 06Sep2000                  
 POTCAR:    PAW_PBE Cs_sv 08Apr2002               
 POTCAR:    PAW_PBE Pb_d 06Sep2000                
 POTCAR:    PAW_PBE Br 06Sep2000                  
 POTCAR:    PAW_PBE Cs_sv 08Apr2002               
   SHA256 =  c1463496f0f6037ed62c6012a8013a89ee9ad6ffb38599dcd6c079e7ed31779b Cs
   COPYR  = (c) Copyright 08Apr2002 Georg Kresse                                
   COPYR  = This file is part of the software VASP. Any use, copying, and all ot
   COPYR  = If you do not have a valid VASP license, you may not use, copy or di
   VRHFIN =Cs: 5s5p6s                                                           
   LEXCH  = PE                                                                  
   EATOM  =   555.6835 eV,   40.8416 Ry                                         
                                                                                
   TITEL  = PAW_PBE Cs_sv 08Apr2002                                             
   LULTRA =        F    use ultrasoft PP ?                                      
   IUNSCR =        1    unscreen: 0-lin 1-nonlin 2-no                           
   RPACOR =    2.200    partial core radius                                     
   POMASS =  132.900; ZVAL   =    9.000    mass and valenz                      
   RCORE  =    2.500    outmost cutoff radius                                   
   RWIGS  =    2.500; RWIGS  =    1.323    wigner-seitz radius (au A)           
   ENMAX  =  220.318; ENMIN  =  165.238 eV                                      
   RCLOC  =    2.207    cutoff for local pot                                    
   LCOR   =        T    correct aug charges                                     
   LPAW   =        T    paw PP                                                  
   EAUG   =  407.933                                                            
   DEXC   =    0.000                                                            
   RMAX   =    2.554    core radius for proj-oper                               
   RAUG   =    1.300    factor for augmentation sphere                          
   RDEP   =    2.590    radius for radial grids                                 
   RDEPT  =    2.117    core radius for aug-charge                              
                                                                                
   Atomic configuration                                                         
   13 entries                                                                   
     n  l   j            E        occ.                                          
     1  0  0.50    -35790.1377   2.0000                                         
     2  0  0.50     -5613.6201   2.0000                                         
     2  1  1.50     -5035.0101   6.0000                                         
     3  0  0.50     -1167.0767   2.0000                                         
     3  1  1.50      -980.9754   6.0000                                         
     3  2  2.50      -708.0703  10.0000                                         
     4  0  0.50      -220.2386   2.0000                                         
     4  1  1.50      -160.7596   6.0000                                         
     4  2  2.50       -74.2354  10.0000                                         
     5  0  0.50       -26.7287   2.0000                                         
     6  0  0.50        -2.0862   1.0000                                         
     5  1  1.50       -13.5159   6.0000                                         
     5  2  2.50        -0.4136   0.0000                                         
   Description                                                                  
     l       E           TYP  RCUT    TYP  RCUT                                 
     0    -26.7287425     23  1.900                                             
     0     -2.0862306     23  1.900                                             
     1    -13.5158719     23  2.500                                             
     1     -2.7211652     23  2.500                                             
     2     -0.4136171     23  2.500                                             
  local pseudopotential read in
  partial core-charges read in
  partial kinetic energy density read in
  atomic valenz-charges read in
  non local Contribution for L=           0  read in
    real space projection operators read in
  non local Contribution for L=           0  read in
    real space projection operators read in
  non local Contribution for L=           1  read in
    real space projection operators read in
  non local Contribution for L=           1  read in
    real space projection operators read in
  non local Contribution for L=           2  read in
    real space projection operators read in
    PAW grid and wavefunctions read in

   number of l-projection  operators is LMAX  =           5
   number of lm-projection operators is LMMAX =          13

 POTCAR:    PAW_PBE Pb_d 06Sep2000                
   SHA256 =  fb885b08f0fba73a15f6a6b0e39bd200c13ec96ef97cf3ecd8e63bade5137abd Pb
   COPYR  = (c) Copyright 06Sep2000 Georg Kresse                                
   COPYR  = This file is part of the software VASP. Any use, copying, and all ot
   COPYR  = If you do not have a valid VASP license, you may not use, copy or di
   VRHFIN =Pb:                                                                  
   LEXCH  = PE                                                                  
   EATOM  =  1661.6185 eV,  122.1255 Ry                                         
                                                                                
   TITEL  = PAW_PBE Pb_d 06Sep2000                                              
   LULTRA =        F    use ultrasoft PP ?                                      
   IUNSCR =        1    unscreen: 0-lin 1-nonlin 2-no                           
   RPACOR =    2.200    partial core radius                                     
   POMASS =  207.200; ZVAL   =   14.000    mass and valenz                      
   RCORE  =    2.500    outmost cutoff radius                                   
   RWIGS  =    3.260; RWIGS  =    1.725    wigner-seitz radius (au A)           
   ENMAX  =  237.835; ENMIN  =  178.376 eV                                      
   ICORE  =        3    local potential                                         
   LCOR   =        T    correct aug charges                                     
   LPAW   =        T    paw PP                                                  
   EAUG   =  391.914                                                            
   DEXC   =    0.000                                                            
   RMAX   =    2.565    core radius for proj-oper                               
   RAUG   =    1.300    factor for augmentation sphere                          
   RDEP   =    2.643    radius for radial grids                                 
   RDEPT  =    2.092    core radius for aug-charge                              
                                                                                
   Atomic configuration                                                         
   16 entries                                                                   
     n  l   j            E        occ.                                          
     1  0  0.50    -88091.8466   2.0000                                         
     2  0  0.50    -15753.4197   2.0000                                         
     2  1  1.50    -13508.1797   6.0000                                         
     3  0  0.50     -3781.7194   2.0000                                         
     3  1  1.50     -3138.2529   6.0000                                         
     3  2  2.50     -2483.2977  10.0000                                         
     4  0  0.50      -856.2895   2.0000                                         
     4  1  1.50      -645.4942   6.0000                                         
     4  2  2.50      -401.8768  10.0000                                         
     4  3  3.50      -132.9059  14.0000                                         
     5  0  0.50      -144.0950   2.0000                                         
     5  1  1.50       -85.7879   6.0000                                         
     5  2  2.50       -21.1769  10.0000                                         
     6  0  0.50       -12.0372   2.0000                                         
     6  1  1.50        -3.4971   2.0000                                         
     5  3  2.50        -2.7212   0.0000                                         
   Description                                                                  
     l       E           TYP  RCUT    TYP  RCUT                                 
     2    -21.1768523     23  2.500                                             
     2      1.3605826     23  2.500                                             
     0    -12.0371562     23  2.500                                             
     0     13.6058260     23  2.500                                             
     1     -3.4971339     23  2.500                                             
     1     13.6058260     23  2.500                                             
     3     -1.3605826      7  2.500                                             
  local pseudopotential read in
  partial core-charges read in
  partial kinetic energy density read in
  atomic valenz-charges read in
  non local Contribution for L=           2  read in
    real space projection operators read in
  non local Contribution for L=           2  read in
    real space projection operators read in
  non local Contribution for L=           0  read in
    real space projection operators read in
  non local Contribution for L=           0  read in
    real space projection operators read in
  non local Contribution for L=           1  read in
    real space projection operators read in
  non local Contribution for L=           1  read in
    real space projection operators read in
    PAW grid and wavefunctions read in

   number of l-projection  operators is LMAX  =           6
   number of lm-projection operators is LMMAX =          18

 POTCAR:    PAW_PBE Br 06Sep2000                  
   SHA256 =  96a73d2954943bbee26f4990d676cc6c3bf44b8dd2c75cd4b3b825d8403f0103 Br
   COPYR  = (c) Copyright 06Sep2000 Georg Kresse                                
   COPYR  = This file is part of the software VASP. Any use, copying, and all ot
   COPYR  = If you do not have a valid VASP license, you may not use, copy or di
   VRHFIN =Br: s2p5                                                             
   LEXCH  = PE                                                                  
   EATOM  =   368.4488 eV,   27.0802 Ry                                         
                                                                                
   TITEL  = PAW_PBE Br 06Sep2000                                                
   LULTRA =        F    use ultrasoft PP ?                                      
   IUNSCR =        1    unscreen: 0-lin 1-nonlin 2-no                           
   RPACOR =    1.900    partial core radius                                     
   POMASS =   79.904; ZVAL   =    7.000    mass and valenz                      
   RCORE  =    2.100    outmost cutoff radius                                   
   RWIGS  =    2.200; RWIGS  =    1.164    wigner-seitz radius (au A)           
   ENMAX  =  216.285; ENMIN  =  162.214 eV                                      
   ICORE  =        3    local potential                                         
   LCOR   =        T    correct aug charges                                     
   LPAW   =        T    paw PP                                                  
   EAUG   =  503.852                                                            
   DEXC   =    0.000                                                            
   RMAX   =    2.139    core radius for proj-oper                               
   RAUG   =    1.300    factor for augmentation sphere                          
   RDEP   =    2.186    radius for radial grids                                 
   RDEPT  =    1.890    core radius for aug-charge                              
                                                                                
   Atomic configuration                                                         
   10 entries                                                                   
     n  l   j            E        occ.                                          
     1  0  0.50    -13316.2796   2.0000                                         
     2  0  0.50     -1732.8239   2.0000                                         
     2  1  1.50     -1528.2193   6.0000                                         
     3  0  0.50      -238.0460   2.0000                                         
     3  1  1.50      -173.4609   6.0000                                         
     3  2  2.50       -66.7132  10.0000                                         
     4  0  0.50       -20.1334   2.0000                                         
     4  1  0.50        -7.8591   5.0000                                         
     4  2  2.50        -8.1635   0.0000                                         
     4  3  2.50        -8.1635   0.0000                                         
   Description                                                                  
     l       E           TYP  RCUT    TYP  RCUT                                 
     0    -20.1333652     23  2.100                                             
     0    -21.4939478     23  2.100                                             
     1     -7.8591052     23  2.100                                             
     1     -3.1608434     23  2.100                                             
     2     -8.1634956     23  2.100                                             
     3     -1.3605826      7  2.100                                             
  local pseudopotential read in
  partial core-charges read in
  partial kinetic energy density read in
  atomic valenz-charges read in
  non local Contribution for L=           0  read in
    real space projection operators read in
  non local Contribution for L=           0  read in
    real space projection operators read in
  non local Contribution for L=           1  read in
    real space projection operators read in
  non local Contribution for L=           1  read in
    real space projection operators read in
  non local Contribution for L=           2  read in
    real space projection operators read in
    PAW grid and wavefunctions read in

   number of l-projection  operators is LMAX  =           5
   number of lm-projection operators is LMMAX =          13

 POTCAR:    PAW_PBE Cs_sv 08Apr2002               
   SHA256 =  c1463496f0f6037ed62c6012a8013a89ee9ad6ffb38599dcd6c079e7ed31779b Cs
   COPYR  = (c) Copyright 08Apr2002 Georg Kresse                                
   COPYR  = This file is part of the software VASP. Any use, copying, and all ot
   COPYR  = If you do not have a valid VASP license, you may not use, copy or di
   VRHFIN =Cs: 5s5p6s                                                           
   LEXCH  = PE                                                                  
   EATOM  =   555.6835 eV,   40.8416 Ry                                         
                                                                                
   TITEL  = PAW_PBE Cs_sv 08Apr2002                                             
   LULTRA =        F    use ultrasoft PP ?                                      
   IUNSCR =        1    unscreen: 0-lin 1-nonlin 2-no                           
   RPACOR =    2.200    partial core radius                                     
   POMASS =  132.900; ZVAL   =    9.000    mass and valenz                      
   RCORE  =    2.500    outmost cutoff radius                                   
   RWIGS  =    2.500; RWIGS  =    1.323    wigner-seitz radius (au A)           
   ENMAX  =  220.318; ENMIN  =  165.238 eV                                      
   RCLOC  =    2.207    cutoff for local pot                                    
   LCOR   =        T    correct aug charges                                     
   LPAW   =        T    paw PP                                                  
   EAUG   =  407.933                                                            
   DEXC   =    0.000                                                            
   RMAX   =    2.554    core radius for proj-oper                               
   RAUG   =    1.300    factor for augmentation sphere                          
   RDEP   =    2.590    radius for radial grids                                 
   RDEPT  =    2.117    core radius for aug-charge                              
                                                                                
   Atomic configuration                                                         
   13 entries                                                                   
     n  l   j            E        occ.                                          
     1  0  0.50    -35790.1377   2.0000                                         
     2  0  0.50     -5613.6201   2.0000                                         
     2  1  1.50     -5035.0101   6.0000                                         
     3  0  0.50     -1167.0767   2.0000                                         
     3  1  1.50      -980.9754   6.0000                                         
     3  2  2.50      -708.0703  10.0000                                         
     4  0  0.50      -220.2386   2.0000                                         
     4  1  1.50      -160.7596   6.0000                                         
     4  2  2.50       -74.2354  10.0000                                         
     5  0  0.50       -26.7287   2.0000                                         
     6  0  0.50        -2.0862   1.0000                                         
     5  1  1.50       -13.5159   6.0000                                         
     5  2  2.50        -0.4136   0.0000                                         
   Description                                                                  
     l       E           TYP  RCUT    TYP  RCUT                                 
     0    -26.7287425     23  1.900                                             
     0     -2.0862306     23  1.900                                             
     1    -13.5158719     23  2.500                                             
     1     -2.7211652     23  2.500                                             
     2     -0.4136171     23  2.500                                             
  local pseudopotential read in
  partial core-charges read in
  partial kinetic energy density read in
  atomic valenz-charges read in
  non local Contribution for L=           0  read in
    real space projection operators read in
  non local Contribution for L=           0  read in
    real space projection operators read in
  non local Contribution for L=           1  read in
    real space projection operators read in
  non local Contribution for L=           1  read in
    real space projection operators read in
  non local Contribution for L=           2  read in
    real space projection operators read in
    PAW grid and wavefunctions read in

   number of l-projection  operators is LMAX  =           5
   number of lm-projection operators is LMMAX =          13

 POTCAR:    PAW_PBE Pb_d 06Sep2000                
   SHA256 =  fb885b08f0fba73a15f6a6b0e39bd200c13ec96ef97cf3ecd8e63bade5137abd Pb
   COPYR  = (c) Copyright 06Sep2000 Georg Kresse                                
   COPYR  = This file is part of the software VASP. Any use, copying, and all ot
   COPYR  = If you do not have a valid VASP license, you may not use, copy or di
   VRHFIN =Pb:                                                                  
   LEXCH  = PE                                                                  
   EATOM  =  1661.6185 eV,  122.1255 Ry                                         
                                                                                
   TITEL  = PAW_PBE Pb_d 06Sep2000                                              
   LULTRA =        F    use ultrasoft PP ?                                      
   IUNSCR =        1    unscreen: 0-lin 1-nonlin 2-no                           
   RPACOR =    2.200    partial core radius                                     
   POMASS =  207.200; ZVAL   =   14.000    mass and valenz                      
   RCORE  =    2.500    outmost cutoff radius                                   
   RWIGS  =    3.260; RWIGS  =    1.725    wigner-seitz radius (au A)           
   ENMAX  =  237.835; ENMIN  =  178.376 eV                                      
   ICORE  =        3    local potential                                         
   LCOR   =        T    correct aug charges                                     
   LPAW   =        T    paw PP                                                  
   EAUG   =  391.914                                                            
   DEXC   =    0.000                                                            
   RMAX   =    2.565    core radius for proj-oper                               
   RAUG   =    1.300    factor for augmentation sphere                          
   RDEP   =    2.643    radius for radial grids                                 
   RDEPT  =    2.092    core radius for aug-charge                              
                                                                                
   Atomic configuration                                                         
   16 entries                                                                   
     n  l   j            E        occ.                                          
     1  0  0.50    -88091.8466   2.0000                                         
     2  0  0.50    -15753.4197   2.0000                                         
     2  1  1.50    -13508.1797   6.0000                                         
     3  0  0.50     -3781.7194   2.0000                                         
     3  1  1.50     -3138.2529   6.0000                                         
     3  2  2.50     -2483.2977  10.0000                                         
     4  0  0.50      -856.2895   2.0000                                         
     4  1  1.50      -645.4942   6.0000                                         
     4  2  2.50      -401.8768  10.0000                                         
     4  3  3.50      -132.9059  14.0000                                         
     5  0  0.50      -144.0950   2.0000                                         
     5  1  1.50       -85.7879   6.0000                                         
     5  2  2.50       -21.1769  10.0000                                         
     6  0  0.50       -12.0372   2.0000                                         
     6  1  1.50        -3.4971   2.0000                                         
     5  3  2.50        -2.7212   0.0000                                         
   Description                                                                  
     l       E           TYP  RCUT    TYP  RCUT                                 
     2    -21.1768523     23  2.500                                             
     2      1.3605826     23  2.500                                             
     0    -12.0371562     23  2.500                                             
     0     13.6058260     23  2.500                                             
     1     -3.4971339     23  2.500                                             
     1     13.6058260     23  2.500                                             
     3     -1.3605826      7  2.500                                             
  local pseudopotential read in
  partial core-charges read in
  partial kinetic energy density read in
  atomic valenz-charges read in
  non local Contribution for L=           2  read in
    real space projection operators read in
  non local Contribution for L=           2  read in
    real space projection operators read in
  non local Contribution for L=           0  read in
    real space projection operators read in
  non local Contribution for L=           0  read in
    real space projection operators read in
  non local Contribution for L=           1  read in
    real space projection operators read in
  non local Contribution for L=           1  read in
    real space projection operators read in
    PAW grid and wavefunctions read in

   number of l-projection  operators is LMAX  =           6
   number of lm-projection operators is LMMAX =          18

 POTCAR:    PAW_PBE Br 06Sep2000                  
   SHA256 =  96a73d2954943bbee26f4990d676cc6c3bf44b8dd2c75cd4b3b825d8403f0103 Br
   COPYR  = (c) Copyright 06Sep2000 Georg Kresse                                
   COPYR  = This file is part of the software VASP. Any use, copying, and all ot
   COPYR  = If you do not have a valid VASP license, you may not use, copy or di
   VRHFIN =Br: s2p5                                                             
   LEXCH  = PE                                                                  
   EATOM  =   368.4488 eV,   27.0802 Ry                                         
                                                                                
   TITEL  = PAW_PBE Br 06Sep2000                                                
   LULTRA =        F    use ultrasoft PP ?                                      
   IUNSCR =        1    unscreen: 0-lin 1-nonlin 2-no                           
   RPACOR =    1.900    partial core radius                                     
   POMASS =   79.904; ZVAL   =    7.000    mass and valenz                      
   RCORE  =    2.100    outmost cutoff radius                                   
   RWIGS  =    2.200; RWIGS  =    1.164    wigner-seitz radius (au A)           
   ENMAX  =  216.285; ENMIN  =  162.214 eV                                      
   ICORE  =        3    local potential                                         
   LCOR   =        T    correct aug charges                                     
   LPAW   =        T    paw PP                                                  
   EAUG   =  503.852                                                            
   DEXC   =    0.000                                                            
   RMAX   =    2.139    core radius for proj-oper                               
   RAUG   =    1.300    factor for augmentation sphere                          
   RDEP   =    2.186    radius for radial grids                                 
   RDEPT  =    1.890    core radius for aug-charge                              
                                                                                
   Atomic configuration                                                         
   10 entries                                                                   
     n  l   j            E        occ.                                          
     1  0  0.50    -13316.2796   2.0000                                         
     2  0  0.50     -1732.8239   2.0000                                         
     2  1  1.50     -1528.2193   6.0000                                         
     3  0  0.50      -238.0460   2.0000                                         
     3  1  1.50      -173.4609   6.0000                                         
     3  2  2.50       -66.7132  10.0000                                         
     4  0  0.50       -20.1334   2.0000                                         
     4  1  0.50        -7.8591   5.0000                                         
     4  2  2.50        -8.1635   0.0000                                         
     4  3  2.50        -8.1635   0.0000                                         
   Description                                                                  
     l       E           TYP  RCUT    TYP  RCUT                                 
     0    -20.1333652     23  2.100                                             
     0    -21.4939478     23  2.100                                             
     1     -7.8591052     23  2.100                                             
     1     -3.1608434     23  2.100                                             
     2     -8.1634956     23  2.100                                             
     3     -1.3605826      7  2.100                                             
  local pseudopotential read in
  partial core-charges read in
  partial kinetic energy density read in
  atomic valenz-charges read in
  non local Contribution for L=           0  read in
    real space projection operators read in
  non local Contribution for L=           0  read in
    real space projection operators read in
  non local Contribution for L=           1  read in
    real space projection operators read in
  non local Contribution for L=           1  read in
    real space projection operators read in
  non local Contribution for L=           2  read in
    real space projection operators read in
    PAW grid and wavefunctions read in

   number of l-projection  operators is LMAX  =           5
   number of lm-projection operators is LMMAX =          13

 Optimization of the real space projectors (new method)

 maximal supplied QI-value         = 15.12
 optimisation between [QCUT,QGAM] = [  8.77, 17.69] = [ 21.53, 87.61] Ry 
 Optimized for a Real-space Cutoff    1.85 Angstroem

   l    n(q)    QCUT    max X(q) W(low)/X(q) W(high)/X(q)  e(spline) 
   0     10     8.768    25.322    0.81E-04    0.51E-04    0.48E-06
   0     10     8.768    99.187    0.78E-04    0.50E-04    0.47E-06
   1      9     8.768    11.761    0.21E-03    0.20E-03    0.37E-06
   1      9     8.768     8.275    0.24E-03    0.22E-03    0.41E-06
   2      9     8.768     3.829    0.23E-04    0.15E-03    0.18E-06
 Optimization of the real space projectors (new method)

 maximal supplied QI-value         = 15.12
 optimisation between [QCUT,QGAM] = [  8.77, 17.69] = [ 21.53, 87.61] Ry 
 Optimized for a Real-space Cutoff    1.59 Angstroem

   l    n(q)    QCUT    max X(q) W(low)/X(q) W(high)/X(q)  e(spline) 
   2      7     8.768     3.846    0.48E-04    0.11E-03    0.11E-06
   2      7     8.768     8.593    0.20E-03    0.22E-04    0.24E-06
   0      8     8.768    20.082    0.68E-04    0.88E-04    0.41E-07
   0      8     8.768     8.597    0.89E-04    0.13E-03    0.59E-07
   1      8     8.768    33.223    0.15E-03    0.53E-04    0.87E-07
   1      8     8.768    15.899    0.14E-03    0.44E-04    0.78E-07
 Optimization of the real space projectors (new method)

 maximal supplied QI-value         = 17.95
 optimisation between [QCUT,QGAM] = [  8.80, 17.59] = [ 21.67, 86.68] Ry 
 Optimized for a Real-space Cutoff    1.59 Angstroem

   l    n(q)    QCUT    max X(q) W(low)/X(q) W(high)/X(q)  e(spline) 
   0      8     8.797   175.082    0.82E-04    0.14E-03    0.89E-07
   0      8     8.797   174.004    0.79E-04    0.14E-03    0.86E-07
   1      8     8.797    54.315    0.16E-03    0.14E-04    0.30E-06
   1      8     8.797    42.441    0.16E-03    0.14E-04    0.30E-06
   2      7     8.797     3.596    0.92E-04    0.15E-03    0.85E-07
 Optimization of the real space projectors (new method)

 maximal supplied QI-value         = 15.12
 optimisation between [QCUT,QGAM] = [  8.77, 17.69] = [ 21.53, 87.61] Ry 
 Optimized for a Real-space Cutoff    1.85 Angstroem

   l    n(q)    QCUT    max X(q) W(low)/X(q) W(high)/X(q)  e(spline) 
   0     10     8.768    25.322    0.81E-04    0.51E-04    0.48E-06
   0     10     8.768    99.187    0.78E-04    0.50E-04    0.47E-06
   1      9     8.768    11.761    0.21E-03    0.20E-03    0.37E-06
   1      9     8.768     8.275    0.24E-03    0.22E-03    0.41E-06
   2      9     8.768     3.829    0.23E-04    0.15E-03    0.18E-06
 Optimization of the real space projectors (new method)

 maximal supplied QI-value         = 15.12
 optimisation between [QCUT,QGAM] = [  8.77, 17.69] = [ 21.53, 87.61] Ry 
 Optimized for a Real-space Cutoff    1.59 Angstroem

   l    n(q)    QCUT    max X(q) W(low)/X(q) W(high)/X(q)  e(spline) 
   2      7     8.768     3.846    0.48E-04    0.11E-03    0.11E-06
   2      7     8.768     8.593    0.20E-03    0.22E-04    0.24E-06
   0      8     8.768    20.082    0.68E-04    0.88E-04    0.41E-07
   0      8     8.768     8.597    0.89E-04    0.13E-03    0.59E-07
   1      8     8.768    33.223    0.15E-03    0.53E-04    0.87E-07
   1      8     8.768    15.899    0.14E-03    0.44E-04    0.78E-07
 Optimization of the real space projectors (new method)

 maximal supplied QI-value         = 17.95
 optimisation between [QCUT,QGAM] = [  8.80, 17.59] = [ 21.67, 86.68] Ry 
 Optimized for a Real-space Cutoff    1.59 Angstroem

   l    n(q)    QCUT    max X(q) W(low)/X(q) W(high)/X(q)  e(spline) 
   0      8     8.797   175.082    0.82E-04    0.14E-03    0.89E-07
   0      8     8.797   174.004    0.79E-04    0.14E-03    0.86E-07
   1      8     8.797    54.315    0.16E-03    0.14E-04    0.30E-06
   1      8     8.797    42.441    0.16E-03    0.14E-04    0.30E-06
   2      7     8.797     3.596    0.92E-04    0.15E-03    0.85E-07
  PAW_PBE Cs_sv 08Apr2002               :
 energy of atom  1       EATOM= -555.6835
 kinetic energy error for atom=    0.0069 (will be added to EATOM!!)
  PAW_PBE Pb_d 06Sep2000                :
 energy of atom  2       EATOM=-1661.6185
 kinetic energy error for atom=    0.0498 (will be added to EATOM!!)
  PAW_PBE Br 06Sep2000                  :
 energy of atom  3       EATOM= -368.4488
 kinetic energy error for atom=    0.0072 (will be added to EATOM!!)
  PAW_PBE Cs_sv 08Apr2002               :
 energy of atom  4       EATOM= -555.6835
 kinetic energy error for atom=    0.0069 (will be added to EATOM!!)
  PAW_PBE Pb_d 06Sep2000                :
 energy of atom  5       EATOM=-1661.6185
 kinetic energy error for atom=    0.0498 (will be added to EATOM!!)
  PAW_PBE Br 06Sep2000                  :
 energy of atom  6       EATOM= -368.4488
 kinetic energy error for atom=    0.0072 (will be added to EATOM!!)


 POSCAR: Cs64 Pb64 Br191                         
  positions in direct lattice
  No initial velocities read in

 METAGGA = SCAN     LMAXTAU =  6    LMIXTAU =  F

 exchange correlation table for  LEXCH =        8
   RHO(1)=    0.500       N(1)  =     2000
   RHO(2)=  100.500       N(2)  =     4000

 VTST: version 3.2, (02/03/18)

 CHAIN: initializing optimizer
 
 OPT: Using VASP Conjugate-Gradient optimizer
 CHAIN: Read ICHAIN            0

 POSCAR: Cs64 Pb64 Br191                         
  positions in direct lattice
  No initial velocities read in



--------------------------------------------------------------------------------------------------------


 ion  position               nearest neighbor table
   1  0.886  0.875  0.354-
   2  0.136  0.875  0.604-
   3  0.886  0.375  0.354-
   4  0.136  0.375  0.604-
   5  0.886  0.875  0.854-
   6  0.136  0.875  0.103-
   7  0.384  0.875  0.351-
   8  0.637  0.875  0.605-
   9  0.886  0.375  0.854-
  10  0.136  0.375  0.104-
  11  0.386  0.875  0.854-
  12  0.636  0.875  0.103-
  13  0.386  0.375  0.854-
  14  0.636  0.375  0.103-
  15  0.104  0.125  0.386-
  16  0.353  0.125  0.636-
  17  0.102  0.625  0.386-
  18  0.104  0.125  0.886-
  19  0.354  0.125  0.136-
  20  0.604  0.125  0.385-
  21  0.854  0.125  0.636-
  22  0.104  0.625  0.886-
  23  0.354  0.625  0.135-
  24  0.854  0.625  0.636-
  25  0.604  0.125  0.886-
  26  0.854  0.125  0.136-
  27  0.604  0.625  0.888-
  28  0.853  0.625  0.137-
  29  0.897  0.875  0.114-
  30  0.146  0.875  0.364-
  31  0.897  0.375  0.114-
  32  0.146  0.375  0.364-
  33  0.897  0.875  0.614-
  34  0.146  0.875  0.864-
  35  0.396  0.875  0.114-
  36  0.648  0.875  0.364-
  37  0.897  0.375  0.614-
  38  0.147  0.375  0.864-
  39  0.396  0.375  0.114-
  40  0.396  0.875  0.615-
  41  0.646  0.875  0.864-
  42  0.646  0.375  0.864-
  43  0.114  0.125  0.146-
  44  0.364  0.125  0.396-
  45  0.114  0.625  0.147-
  46  0.114  0.125  0.646-
  47  0.364  0.125  0.897-
  48  0.614  0.125  0.146-
  49  0.864  0.125  0.396-
  50  0.114  0.625  0.646-
  51  0.364  0.625  0.897-
  52  0.614  0.625  0.146-
  53  0.864  0.625  0.396-
  54  0.615  0.125  0.647-
  55  0.864  0.125  0.897-
  56  0.864  0.625  0.896-
  57  0.750  0.750  0.250- 132 2.99 225 2.99 252 3.00 143 3.00 310 3.00 203 3.02
  58  0.000  0.750  0.500- 133 2.99 144 3.00 200 3.01 241 3.01 220 3.01 226 3.02
  59  0.750  0.250  0.250- 141 2.99 136 3.00 227 3.00 250 3.00 216 3.01 207 3.01
  60  0.000  0.250  0.500- 142 2.99 137 3.00 204 3.01 239 3.01 228 3.01 217 3.01
  61  0.750  0.751  0.750- 138 2.98 229 2.99 209 2.99 149 3.00 315 3.02 223 3.03
  62  0.000  0.750  0.000- 150 2.99 139 3.00 230 3.01 224 3.01 197 3.01 247 3.01
  63  0.249  0.751  0.249- 127 2.99 301 2.99 248 2.99 213 3.00 231 3.01 198 3.02
  64  0.499  0.755  0.499- 128 2.80 314 2.98 232 2.99 311 2.99 208 2.99
  65  0.750  0.250  0.750- 145 2.99 299 3.00 210 3.00 233 3.00 221 3.01 246 3.02
  66  0.000  0.250  0.000- 146 3.00 140 3.00 234 3.01 222 3.01 199 3.01 243 3.01
  67  0.250  0.750  0.750- 130 2.99 218 3.00 201 3.00 153 3.00 236 3.02 242 3.02
  68  0.500  0.750  0.000- 131 2.99 154 3.00 219 3.00 237 3.00 251 3.02 202 3.02
  69  0.250  0.250  0.750- 151 2.99 214 3.00 134 3.00 205 3.00 240 3.01 312 3.01
  70  0.500  0.250  0.000- 152 2.99 135 3.00 238 3.00 215 3.00 206 3.01 249 3.01
  71  0.000  0.750  0.250- 155 2.99 115 3.00 197 3.00 213 3.01 225 3.01 241 3.01
  72  0.250  0.750  0.500- 226 2.99 116 3.00 156 3.00 242 3.00 198 3.01 311 3.06
  73  1.000  0.250  0.250- 113 2.99 157 3.00 199 3.00 227 3.01 239 3.01 211 3.01
  74  0.000  0.750  0.750- 158 2.99 121 3.00 247 3.00 218 3.00 200 3.01 229 3.02
  75  0.250  0.750  1.000- 159 2.99 122 3.00 230 3.00 248 3.01 201 3.01 219 3.01
  76  0.500  0.750  0.250- 202 2.98 160 3.00 123 3.00 310 3.00 231 3.00 314 3.07
  77  0.751  0.750  0.500- 220 2.99 161 2.99 203 3.00 315 3.00 298 3.00 232 3.04
  78  1.000  0.250  0.750- 117 2.99 162 3.00 243 3.00 214 3.01 204 3.01 233 3.01
  79  0.250  0.250  1.000- 118 2.99 163 3.00 234 3.00 205 3.01 244 3.01 215 3.01
  80  0.750  0.250  0.500- 120 2.99 217 2.99 164 3.00 207 3.00 246 3.00 313 3.03
  81  0.500  0.750  0.750- 251 2.99 165 2.99 236 3.00 297 3.00 223 3.01 208 3.05
  82  0.750  0.750  0.000- 166 2.99 126 3.00 224 3.00 252 3.00 209 3.01 237 3.01
  83  0.500  0.250  0.750- 124 2.99 249 2.99 312 3.00 167 3.00 221 3.01 308 3.03
  84  0.750  0.250  0.000- 125 2.99 168 3.00 222 3.00 210 3.01 250 3.01 238 3.01
  85  1.000  0.000  0.250- 113 2.99 155 3.00 267 3.00 169 3.01 183 3.01 253 3.01
  86  0.250  1.000  0.500- 170 3.00 114 3.00 184 3.00 268 3.00 156 3.01 254 3.03
  87  0.000  0.500  0.250- 157 2.99 115 3.00 269 3.00 255 3.01 171 3.01 185 3.01
  88  0.000  0.000  0.750- 117 2.99 158 3.00 187 3.00 256 3.01 270 3.01 173 3.01
  89  0.250  0.000  1.000- 118 2.99 159 3.00 174 3.00 271 3.01 188 3.01 257 3.01
  90  0.500  1.000  0.250- 272 3.00 119 3.00 258 3.00 175 3.01 160 3.01 189 3.03
  91  0.750  0.000  0.500- 120 2.99 259 3.00 161 3.00 273 3.00 190 3.00 176 3.03
  92  0.000  0.500  0.750- 162 2.99 121 3.00 191 3.00 260 3.00 274 3.01 177 3.01
  93  0.250  0.500  1.000- 163 2.99 122 3.00 178 3.00 192 3.01 275 3.01 261 3.01
  94  0.751  0.500  0.500- 164 2.99 262 2.99 277 3.00 298 3.00 307 3.00 305 3.04
  95  0.500  0.000  0.750- 124 2.99 193 2.99 165 3.00 263 3.01 180 3.01 278 3.03
  96  0.750  0.000  0.000- 125 2.99 166 3.00 264 3.00 194 3.01 279 3.01 181 3.01
  97  0.500  0.500  0.750- 167 2.99 195 2.99 304 3.00 297 3.00 265 3.01 318 3.05
  98  0.750  0.500  0.000- 168 2.99 126 3.00 266 3.00 196 3.00 280 3.01 182 3.02
  99  0.750  0.000  0.250- 141 2.99 132 3.00 169 3.00 194 3.00 258 3.01 273 3.01
 100  0.000  0.000  0.500- 142 2.99 133 3.00 183 3.01 270 3.01 259 3.01 170 3.01
 101  0.750  0.499  0.250- 136 2.99 171 2.99 196 3.00 143 3.00 316 3.00 277 3.02
 102  0.000  0.500  0.500- 137 2.99 144 3.00 274 3.00 185 3.01 262 3.01 172 3.02
 103  0.750  0.000  0.750- 145 2.99 138 3.00 173 3.00 279 3.00 263 3.01 190 3.02
 104  0.000  1.000  0.000- 146 3.00 139 3.00 174 3.01 264 3.01 267 3.01 187 3.01
 105  0.250  0.000  0.250- 147 2.99 127 3.00 253 3.00 188 3.00 175 3.01 268 3.02
 106  0.500  0.002  0.500- 148 2.96 254 2.99 189 2.99 278 2.99 176 2.99 128 3.13
 107  0.751  0.499  0.751- 299 2.98 177 2.99 280 2.99 149 3.00 307 3.02 265 3.02
 108  0.000  0.500  0.000- 150 2.99 140 3.00 178 3.01 266 3.01 269 3.01 191 3.01
 109  0.250  0.000  0.750- 151 2.99 130 3.00 256 3.00 271 3.00 184 3.01 180 3.01
 110  0.500  0.000  0.000- 152 2.99 131 3.00 257 3.00 181 3.00 193 3.01 272 3.01
 111  0.250  0.500  0.750- 134 2.99 260 3.00 275 3.00 153 3.00 304 3.02 186 3.02
 112  0.500  0.500  0.000- 135 2.99 154 3.00 261 3.00 182 3.00 195 3.02 276 3.02
 113  0.984  0.125  0.231-  85 2.99  73 2.99
 114  0.235  0.125  0.481- 292 3.00  86 3.00
 115  0.985  0.625  0.231-  87 3.00  71 3.00
 116  0.232  0.625  0.480- 294 2.99  72 3.00
 117  0.984  0.125  0.731-  88 2.99  78 2.99
 118  0.234  0.125  0.981-  89 2.99  79 2.99
 119  0.485  0.125  0.232-  90 3.00 291 3.00
 120  0.734  0.125  0.480-  91 2.99  80 2.99
 121  0.984  0.625  0.731-  92 3.00  74 3.00
 122  0.234  0.625  0.981-  93 3.00  75 3.00
 123  0.485  0.625  0.229-  76 3.00 293 3.00
 124  0.484  0.125  0.729-  83 2.99  95 2.99
 125  0.734  0.125  0.981-  96 2.99  84 2.99
 126  0.735  0.625  0.981-  98 3.00  82 3.00
 127  0.231  0.875  0.234-  63 2.99 105 3.00
 128  0.480  0.871  0.483-  64 2.80 106 3.13
 129  0.231  0.375  0.234- 295 2.98 289 3.00
 130  0.231  0.875  0.734-  67 2.99 109 3.00
 131  0.481  0.875  0.984-  68 2.99 110 3.00
 132  0.731  0.875  0.234-  57 2.99  99 3.00
 133  0.981  0.875  0.484-  58 2.99 100 3.00
 134  0.232  0.375  0.734- 111 2.99  69 3.00
 135  0.481  0.375  0.984- 112 2.99  70 3.00
 136  0.731  0.375  0.234- 101 2.99  59 3.00
 137  0.981  0.375  0.484- 102 2.99  60 3.00
 138  0.730  0.875  0.735-  61 2.98 103 3.00
 139  0.981  0.875  0.984-  62 3.00 104 3.00
 140  0.981  0.375  0.984- 108 3.00  66 3.00
 141  0.769  0.125  0.266-  99 2.99  59 2.99
 142  0.019  0.125  0.516- 100 2.99  60 2.99
 143  0.767  0.625  0.267- 101 3.00  57 3.00
 144  0.019  0.625  0.516- 102 3.00  58 3.00
 145  0.770  0.125  0.766-  65 2.99 103 2.99
 146  0.019  0.125  0.016- 104 3.00  66 3.00
 147  0.270  0.125  0.266- 289 2.99 105 2.99
 148  0.519  0.125  0.515- 106 2.96 290 2.96
 149  0.767  0.625  0.764-  61 3.00 107 3.00
 150  0.020  0.625  0.016-  62 2.99 108 2.99
 151  0.270  0.125  0.766-  69 2.99 109 2.99
 152  0.519  0.125  0.016- 110 2.99  70 2.99
 153  0.267  0.625  0.768- 111 3.00  67 3.00
 154  0.519  0.625  0.016- 112 3.00  68 3.00
 155  0.015  0.875  0.269-  71 2.99  85 3.00
 156  0.267  0.874  0.520-  72 3.00  86 3.01
 157  0.016  0.375  0.269-  87 2.99  73 3.00
 158  0.016  0.875  0.769-  74 2.99  88 3.00
 159  0.266  0.875  0.019-  75 2.99  89 3.00
 160  0.516  0.875  0.272-  76 3.00  90 3.01
 161  0.765  0.875  0.519-  77 2.99  91 3.00
 162  0.016  0.375  0.769-  92 2.99  78 3.00
 163  0.266  0.375  0.019-  93 2.99  79 3.00
 164  0.765  0.375  0.520-  94 2.99  80 3.00
 165  0.516  0.875  0.768-  81 2.99  95 3.00
 166  0.766  0.875  0.020-  82 2.99  96 3.00
 167  0.516  0.375  0.768-  97 2.99  83 3.00
 168  0.766  0.375  0.019-  98 2.99  84 3.00
 169  0.874  0.982  0.225-  99 3.00  85 3.01
 170  0.124  0.982  0.475-  86 3.00 100 3.01
 171  0.874  0.482  0.224- 101 2.99  87 3.01
 172  0.125  0.482  0.475- 294 2.99 102 3.02
 173  0.874  0.982  0.724- 103 3.00  88 3.01
 174  0.124  0.982  0.975-  89 3.00 104 3.01
 175  0.374  0.982  0.225-  90 3.01 105 3.01
 176  0.623  0.982  0.475- 106 2.99  91 3.03
 177  0.874  0.482  0.724- 107 2.99  92 3.01
 178  0.124  0.482  0.974-  93 3.00 108 3.01
 179  0.374  0.482  0.225- 293 3.00 295 3.02
 180  0.374  0.982  0.725-  95 3.01 109 3.01
 181  0.624  0.982  0.975- 110 3.00  96 3.01
 182  0.624  0.482  0.975- 112 3.00  98 3.02
 183  0.975  0.018  0.374- 100 3.01  85 3.01
 184  0.225  0.018  0.624-  86 3.00 109 3.01
 185  0.974  0.518  0.374- 102 3.01  87 3.01
 186  0.225  0.518  0.624- 294 3.00 111 3.02
 187  0.975  0.018  0.874-  88 3.00 104 3.01
 188  0.225  0.018  0.124- 105 3.00  89 3.01
 189  0.474  0.018  0.375- 106 2.99  90 3.03
 190  0.724  0.018  0.624-  91 3.00 103 3.02
 191  0.974  0.518  0.874-  92 3.00 108 3.01
 192  0.224  0.517  0.124- 295 2.99  93 3.01
 193  0.475  0.018  0.874-  95 2.99 110 3.01
 194  0.724  0.018  0.124-  99 3.00  96 3.01
 195  0.475  0.518  0.873-  97 2.99 112 3.02
 196  0.725  0.518  0.124- 101 3.00  98 3.00
 197  0.026  0.768  0.126-  71 3.00  62 3.01
 198  0.275  0.768  0.376-  72 3.01  63 3.02
 199  0.025  0.268  0.126-  73 3.00  66 3.01
 200  0.025  0.768  0.626-  58 3.01  74 3.01
 201  0.276  0.768  0.876-  67 3.00  75 3.01
 202  0.525  0.768  0.127-  76 2.98  68 3.02
 203  0.775  0.768  0.376-  77 3.00  57 3.02
 204  0.025  0.268  0.626-  60 3.01  78 3.01
 205  0.276  0.268  0.876-  69 3.00  79 3.01
 206  0.525  0.268  0.126- 291 3.00  70 3.01
 207  0.775  0.268  0.376-  80 3.00  59 3.01
 208  0.528  0.765  0.625-  64 2.99  81 3.05
 209  0.776  0.768  0.876-  61 2.99  82 3.01
 210  0.775  0.268  0.876-  65 3.00  84 3.01
 211  0.126  0.232  0.276- 289 3.00  73 3.01
 212  0.377  0.232  0.526- 290 2.99 292 3.02
 213  0.126  0.733  0.276-  63 3.00  71 3.01
 214  0.126  0.232  0.775-  69 3.00  78 3.01
 215  0.376  0.232  0.025-  70 3.00  79 3.01
 216  0.626  0.232  0.275- 291 3.00  59 3.01
 217  0.876  0.232  0.525-  80 2.99  60 3.01
 218  0.126  0.732  0.776-  67 3.00  74 3.00
 219  0.376  0.732  0.025-  68 3.00  75 3.01
 220  0.876  0.732  0.525-  77 2.99  58 3.01
 221  0.626  0.232  0.775-  83 3.01  65 3.01
 222  0.876  0.232  0.026-  84 3.00  66 3.01
 223  0.626  0.733  0.777-  81 3.01  61 3.03
 224  0.876  0.732  0.026-  82 3.00  62 3.01
 225  0.874  0.768  0.224-  57 2.99  71 3.01
 226  0.125  0.768  0.475-  72 2.99  58 3.02
 227  0.874  0.268  0.225-  59 3.00  73 3.01
 228  0.124  0.268  0.475- 292 3.00  60 3.01
 229  0.874  0.768  0.724-  61 2.99  74 3.02
 230  0.124  0.768  0.974-  75 3.00  62 3.01
 231  0.374  0.768  0.225-  76 3.00  63 3.01
 232  0.623  0.765  0.473-  64 2.99  77 3.04
 233  0.874  0.268  0.724-  65 3.00  78 3.01
 234  0.124  0.268  0.974-  79 3.00  66 3.01
 235  0.374  0.268  0.225- 291 3.01 289 3.01
 236  0.374  0.768  0.724-  81 3.00  67 3.02
 237  0.624  0.768  0.975-  68 3.00  82 3.01
 238  0.624  0.268  0.975-  70 3.00  84 3.01
 239  0.975  0.232  0.374-  60 3.01  73 3.01
 240  0.225  0.232  0.624- 292 3.00  69 3.01
 241  0.974  0.732  0.374-  58 3.01  71 3.01
 242  0.224  0.732  0.624-  72 3.00  67 3.02
 243  0.975  0.232  0.874-  78 3.00  66 3.01
 244  0.225  0.232  0.124- 289 3.00  79 3.01
 245  0.474  0.232  0.374- 290 2.99 291 3.02
 246  0.725  0.232  0.624-  80 3.00  65 3.02
 247  0.974  0.732  0.874-  74 3.00  62 3.01
 248  0.224  0.733  0.124-  63 2.99  75 3.01
 249  0.475  0.232  0.874-  83 2.99  70 3.01
 250  0.724  0.232  0.124-  59 3.00  84 3.01
 251  0.475  0.732  0.873-  81 2.99  68 3.02
 252  0.725  0.732  0.124-  57 3.00  82 3.00
 253  0.126  0.018  0.276- 105 3.00  85 3.01
 254  0.377  0.018  0.526- 106 2.99  86 3.03
 255  0.126  0.517  0.276- 295 2.99  87 3.01
 256  0.126  0.018  0.775- 109 3.00  88 3.01
 257  0.376  0.018  0.025- 110 3.00  89 3.01
 258  0.626  0.018  0.276-  90 3.00  99 3.01
 259  0.876  0.018  0.525-  91 3.00 100 3.01
 260  0.126  0.518  0.776- 111 3.00  92 3.00
 261  0.376  0.518  0.025- 112 3.00  93 3.01
 262  0.876  0.518  0.525-  94 2.99 102 3.01
 263  0.626  0.018  0.775-  95 3.01 103 3.01
 264  0.876  0.018  0.026-  96 3.00 104 3.01
 265  0.626  0.517  0.777-  97 3.01 107 3.02
 266  0.876  0.518  0.026-  98 3.00 108 3.01
 267  0.025  0.982  0.126-  85 3.00 104 3.01
 268  0.275  0.982  0.376-  86 3.00 105 3.02
 269  0.026  0.482  0.126-  87 3.00 108 3.01
 270  0.025  0.982  0.626- 100 3.01  88 3.01
 271  0.276  0.982  0.876- 109 3.00  89 3.01
 272  0.525  0.982  0.126-  90 3.00 110 3.01
 273  0.775  0.982  0.376-  91 3.00  99 3.01
 274  0.025  0.482  0.626- 102 3.00  92 3.01
 275  0.276  0.482  0.876- 111 3.00  93 3.01
 276  0.525  0.482  0.127- 293 2.98 112 3.02
 277  0.775  0.482  0.376-  94 3.00 101 3.02
 278  0.525  0.982  0.625- 106 2.99  95 3.03
 279  0.775  0.982  0.876- 103 3.00  96 3.01
 280  0.776  0.482  0.876- 107 2.99  98 3.01
 281  0.383  0.375  0.350-
 282  0.638  0.375  0.606-
 283  0.611  0.625  0.379-
 284  0.349  0.625  0.639-
 285  0.395  0.375  0.616-
 286  0.648  0.375  0.364-
 287  0.621  0.625  0.658-
 288  0.357  0.625  0.390-
 289  0.250  0.249  0.250- 147 2.99 129 3.00 211 3.00 244 3.00 235 3.01 309 3.02
 290  0.500  0.249  0.500- 148 2.96 313 2.99 308 2.99 212 2.99 245 2.99 300 3.13
 291  0.500  0.250  0.250- 206 3.00 119 3.00 216 3.00 235 3.01 302 3.01 245 3.02
 292  0.250  0.250  0.500- 114 3.00 228 3.00 240 3.00 309 3.00 303 3.01 212 3.02
 293  0.500  0.500  0.250- 276 2.98 302 2.99 123 3.00 316 3.00 179 3.00 306 3.07
 294  0.250  0.500  0.500- 172 2.99 116 2.99 303 3.00 186 3.00 319 3.01 317 3.06
 295  0.249  0.499  0.249- 129 2.98 301 2.99 192 2.99 255 2.99 179 3.02 319 3.02
 296  0.499  0.495  0.499- 300 2.80 306 2.98 305 2.99 318 2.99 317 2.99
 297  0.484  0.625  0.727-  81 3.00  97 3.00
 298  0.734  0.625  0.481-  94 3.00  77 3.00
 299  0.731  0.375  0.736- 107 2.98  65 3.00
 300  0.478  0.379  0.483- 296 2.80 290 3.13
 301  0.266  0.625  0.262- 295 2.99  63 2.99
 302  0.515  0.375  0.272- 293 2.99 291 3.01
 303  0.266  0.376  0.519- 294 3.00 292 3.01
 304  0.374  0.483  0.724-  97 3.00 111 3.02
 305  0.623  0.484  0.473- 296 2.99  94 3.04
 306  0.477  0.525  0.376- 296 2.98 293 3.07
 307  0.725  0.517  0.624-  94 3.00 107 3.02
 308  0.525  0.268  0.625- 290 2.99  83 3.03
 309  0.275  0.268  0.376- 292 3.00 289 3.02
 310  0.626  0.734  0.273-  76 3.00  57 3.00
 311  0.378  0.728  0.525-  64 2.99  72 3.06
 312  0.374  0.268  0.725-  83 3.00  69 3.01
 313  0.623  0.269  0.475- 290 2.99  80 3.03
 314  0.477  0.726  0.376-  64 2.98  76 3.07
 315  0.725  0.733  0.624-  77 3.00  61 3.02
 316  0.626  0.516  0.273- 293 3.00 101 3.00
 317  0.378  0.524  0.524- 296 2.99 294 3.06
 318  0.527  0.485  0.625- 296 2.99  97 3.05
 319  0.275  0.482  0.376- 294 3.01 295 3.02


IMPORTANT INFORMATION: All symmetrisations will be switched off!
NOSYMM: (Re-)initialisation of all symmetry stuff for point group C_1.



 KPOINTS: 1x1x1                                   

Automatic generation of k-mesh.
Space group operators:
 irot       det(A)        alpha          n_x          n_y          n_z        tau_x        tau_y        tau_z
    1     1.000000     0.000000     1.000000     0.000000     0.000000     0.000000     0.000000     0.000000
 
 Subroutine IBZKPT returns following result:
 ===========================================
 
 Found      1 irreducible k-points:
 
 Following reciprocal coordinates:
            Coordinates               Weight
  0.000000  0.000000  0.000000      1.000000
 
 Following cartesian coordinates:
            Coordinates               Weight
 -0.000000  0.000000  0.000000      1.000000
 


--------------------------------------------------------------------------------------------------------




 Dimension of arrays:
   k-points           NKPTS =      1   k-points in BZ     NKDIM =      1   number of bands    NBANDS=   1688
   number of dos      NEDOS =    301   number of ions     NIONS =    319
   non local maximal  LDIM  =      6   non local SUM 2l+1 LMDIM =     18
   total plane-waves  NPLWV = ******
   max r-space proj   IRMAX =   5716   max aug-charges    IRDMAX=  91227
   dimension x,y,z NGX =   140 NGY =  140 NGZ =  140
   dimension x,y,z NGXF=   280 NGYF=  280 NGZF=  280
   support grid    NGXF=   560 NGYF=  560 NGZF=  560
   ions per type =              56  56 168   8   8  23
   NGX,Y,Z   is equivalent  to a cutoff of   9.97,  9.89,  9.97 a.u.
   NGXF,Y,Z  is equivalent  to a cutoff of  19.95, 19.78, 19.95 a.u.

 SYSTEM =  CsPbBr3 cubic bulk                      
 POSCAR =  Cs64 Pb64 Br191                         

 Startparameter for this run:
   NWRITE =      2    write-flag & timer
   PREC   = accura    normal or accurate (medium, high low for compatibility)
   ISTART =      0    job   : 0-new  1-cont  2-samecut
   ICHARG =      2    charge: 1-file 2-atom 10-const
   ISPIN  =      1    spin polarized calculation?
   LNONCOLLINEAR =      F non collinear calculations
   LSORBIT =      F    spin-orbit coupling
   INIWAV =      1    electr: 0-lowe 1-rand  2-diag
   LASPH  =      T    aspherical Exc in radial PAW
   METAGGA=      F    non-selfconsistent MetaGGA calc.

 Electronic Relaxation 1
   ENCUT  =  300.0 eV  22.05 Ry    4.70 a.u.  32.96 33.23 32.96*2*pi/ulx,y,z
   ENINI  =  300.0     initial cutoff
   ENAUG  =  503.9 eV  augmentation charge cutoff
   NELM   =    200;   NELMIN=  2; NELMDL= -5     # of ELM steps 
   EDIFF  = 0.1E-05   stopping-criterion for ELM
   LREAL  =      T    real-space projection
   NLSPLINE    = F    spline interpolate recip. space projectors
   LCOMPAT=      F    compatible to vasp.4.4
   GGA_COMPAT  = T    GGA compatible to vasp.4.4-vasp.4.6
   LMAXPAW     = -100 max onsite density
   LMAXMIX     =    2 max onsite mixed and CHGCAR
   VOSKOWN=      0    Vosko Wilk Nusair interpolation
   ROPT   =   -0.00025  -0.00025  -0.00025  -0.00025
   ROPT   =   -0.00025  -0.00025
 Ionic relaxation
   EDIFFG = -.1E-01   stopping-criterion for IOM
   NSW    =     75    number of steps for IOM
   NBLOCK =      1;   KBLOCK =     75    inner block; outer block 
   IBRION =      2    ionic relax: 0-MD 1-quasi-New 2-CG
   NFREE  =      1    steps in history (QN), initial steepest desc. (CG)
   ISIF   =      2    stress and relaxation
   IWAVPR =     11    prediction:  0-non 1-charg 2-wave 3-comb
   ISYM   =      0    0-nonsym 1-usesym 2-fastsym
   LCORR  =      T    Harris-Foulkes like correction to forces

   POTIM  = 0.5000    time-step for ionic-motion
   TEIN   =    0.0    initial temperature
   TEBEG  =    0.0;   TEEND  =   0.0 temperature during run
   SMASS  =  -3.00    Nose mass-parameter (am)
   estimated Nose-frequenzy (Omega)   =  0.10E-29 period in steps =****** mass=  -0.124E-25a.u.
   SCALEE = 1.0000    scale energy and forces
   NPACO  =    256;   APACO  = 16.0  distance and # of slots for P.C.
   PSTRESS=    0.0 pullay stress

  Mass of Ions in am
   POMASS = 132.90207.20 79.90132.90207.20 79.90
  Ionic Valenz
   ZVAL   =   9.00 14.00  7.00  9.00 14.00  7.00
  Atomic Wigner-Seitz radii
   RWIGS  =  -1.00 -1.00 -1.00 -1.00 -1.00 -1.00
  virtual crystal weights 
   VCA    =   1.00  1.00  1.00  1.00  1.00  1.00
   NELECT =    2808.0000    total number of electrons
   NUPDOWN=       0.0000    fix difference up-down

 DOS related values:
   EMIN   =  10.00;   EMAX   =-10.00  energy-range for DOS
   EFERMI =   0.00
   ISMEAR =     0;   SIGMA  =   0.01  broadening in eV -4-tet -1-fermi 0-gaus

 Electronic relaxation 2 (details)
   IALGO  =     38    algorithm
   LDIAG  =      T    sub-space diagonalisation (order eigenvalues)
   LSUBROT=      F    optimize rotation matrix (better conditioning)
   TURBO    =      0    0=normal 1=particle mesh
   IRESTART =      0    0=no restart 2=restart with 2 vectors
   NREBOOT  =      0    no. of reboots
   NMIN     =      0    reboot dimension
   EREF     =   0.00    reference energy to select bands
   IMIX   =      4    mixing-type and parameters
     AMIX     =   0.40;   BMIX     =  1.00
     AMIX_MAG =   1.60;   BMIX_MAG =  1.00
     AMIN     =   0.10
     WC   =   100.;   INIMIX=   1;  MIXPRE=   1;  MAXMIX= -45

 Intra band minimization:
   WEIMIN = 0.0010     energy-eigenvalue tresh-hold
   EBREAK =  0.15E-09  absolut break condition
   DEPER  =   0.30     relativ break condition  

   TIME   =   0.40     timestep for ELM

  volume/ion in A,a.u.               =      40.13       270.83
  Fermi-wavevector in a.u.,A,eV,Ry     =   0.987293  1.865713 13.262239  0.974747
  Thomas-Fermi vector in A             =   2.118736

 Write flags
   LWAVE        =      F    write WAVECAR
   LDOWNSAMPLE  =      F    k-point downsampling of WAVECAR
   LCHARG       =      F    write CHGCAR
   LVTOT        =      F    write LOCPOT, total local potential
   LVHAR        =      T    write LOCPOT, Hartree potential only
   LELF         =      F    write electronic localiz. function (ELF)
   LORBIT       =     10    0 simple, 1 ext, 2 COOP (PROOUT), +10 PAW based schemes


 Dipole corrections
   LMONO  =      F    monopole corrections only (constant potential shift)
   LDIPOL =      F    correct potential (dipole corrections)
   IDIPOL =      0    1-x, 2-y, 3-z, 4-all directions 
   EPSILON=  1.0000000 bulk dielectric constant

 Exchange correlation treatment:
   GGA     =    --    GGA type
   LEXCH   =     8    internal setting for exchange type
   VOSKOWN=      0    Vosko Wilk Nusair interpolation
   LHFCALC =     F    Hartree Fock is set to
   LHFONE  =     F    Hartree Fock one center treatment
   AEXX    =    0.0000 exact exchange contribution

 Linear response parameters
   LEPSILON=     F    determine dielectric tensor
   LRPA    =     F    only Hartree local field effects (RPA)
   LNABLA  =     F    use nabla operator in PAW spheres
   LVEL    =     F    velocity operator in full k-point grid
   LINTERFAST=   F  fast interpolation
   KINTER  =     0    interpolate to denser k-point grid
   CSHIFT  =0.1000    complex shift for real part using Kramers Kronig
   OMEGAMAX=  -1.0    maximum frequency
   DEG_THRESHOLD= 0.2000000E-02 threshold for treating states as degnerate
   RTIME   =   -0.100 relaxation time in fs
  (WPLASMAI=    0.000 imaginary part of plasma frequency in eV, 0.658/RTIME)
   DFIELD  = 0.0000000 0.0000000 0.0000000 field for delta impulse in time

 Orbital magnetization related:
   ORBITALMAG=     F  switch on orbital magnetization
   LCHIMAG   =     F  perturbation theory with respect to B field
   DQ        =  0.001000  dq finite difference perturbation B field
   LLRAUG    =     F  two centre corrections for induced B field



--------------------------------------------------------------------------------------------------------


 conjugate gradient relaxation of ions
 charge density and potential will be updated during run
 non-spin polarized calculation
 Variant of blocked Davidson
 Davidson routine will perform the subspace rotation
 perform sub-space diagonalisation
    after iterative eigenvector-optimisation
 modified Broyden-mixing scheme, WC =      100.0
 initial mixing is a Kerker type mixing with AMIX =  0.4000 and BMIX =      1.0000
 Hartree-type preconditioning will be used
 using additional bands          284
 real space projection scheme for non local part
 use partial core corrections
 calculate Harris-corrections to forces   (improved forces if not selfconsistent)
 use gradient corrections 
 use of overlap-Matrix (Vanderbilt PP)
 Gauss-broadening in eV      SIGMA  =   0.01


--------------------------------------------------------------------------------------------------------


  energy-cutoff  :      300.00
  volume of cell :    12802.17
      direct lattice vectors                 reciprocal lattice vectors
    16.840035000  0.000000000 16.155961000     0.029691150 -0.000000000  0.030948329
     0.000000000 23.527616000  0.000000000     0.000000000  0.042503244 -0.000000000
   -16.840035000  0.000000000 16.155961000    -0.029691150  0.000000000  0.030948329

  length of vectors
    23.336706165 23.527616000 23.336706165     0.042887801  0.042503244  0.042887801



 k-points in units of 2pi/SCALE and weight: 1x1x1                                   
  -0.00000000  0.00000000  0.00000000       1.000

 k-points in reciprocal lattice and weights: 1x1x1                                   
   0.00000000  0.00000000  0.00000000       1.000

 position of ions in fractional coordinates (direct lattice) 
   0.88610700  0.87510200  0.35354200
   0.13607300  0.87508500  0.60359400
   0.88612500  0.37488500  0.35354100
   0.13608200  0.37491700  0.60383200
   0.88638500  0.87518500  0.85387000
   0.13583500  0.87513500  0.10325200
   0.38377200  0.87529600  0.35053700
   0.63697000  0.87512400  0.60459700
   0.88619000  0.37480400  0.85371300
   0.13598400  0.37485000  0.10353500
   0.38610100  0.87517300  0.85362400
   0.63612100  0.87501900  0.10342900
   0.38602100  0.37483900  0.85351300
   0.63617800  0.37496500  0.10341500
   0.10350900  0.12501900  0.38605700
   0.35278400  0.12495100  0.63607400
   0.10237800  0.62497400  0.38556200
   0.10350300  0.12502100  0.88608600
   0.35381300  0.12499800  0.13588500
   0.60389200  0.12505700  0.38504200
   0.85383000  0.12500000  0.63624600
   0.10377200  0.62496200  0.88608900
   0.35362300  0.62500000  0.13534000
   0.85393700  0.62498400  0.63633900
   0.60386500  0.12503800  0.88625500
   0.85362800  0.12498900  0.13600300
   0.60413700  0.62495000  0.88769300
   0.85339200  0.62500400  0.13675200
   0.89655600  0.87506900  0.11391900
   0.14609200  0.87518700  0.36370000
   0.89652900  0.37491900  0.11388800
   0.14615100  0.37481800  0.36379200
   0.89672400  0.87514400  0.61401900
   0.14632900  0.87515800  0.86400100
   0.39592900  0.87503700  0.11374200
   0.64780200  0.87517600  0.36392300
   0.89681200  0.37486100  0.61412200
   0.14650300  0.37482300  0.86376400
   0.39600200  0.37493300  0.11370000
   0.39605300  0.87511400  0.61534300
   0.64616600  0.87519300  0.86430300
   0.64605900  0.37479100  0.86439100
   0.11369200  0.12499300  0.14621500
   0.36358800  0.12500700  0.39615000
   0.11417900  0.62500800  0.14660400
   0.11395400  0.12497400  0.64646200
   0.36394200  0.12499800  0.89669500
   0.61397300  0.12500300  0.14642200
   0.86413400  0.12501000  0.39635600
   0.11361800  0.62501000  0.64647100
   0.36364900  0.62499400  0.89720000
   0.61438900  0.62499600  0.14558200
   0.86409800  0.62498500  0.39613000
   0.61461600  0.12503700  0.64715400
   0.86421800  0.12497900  0.89680100
   0.86373500  0.62502200  0.89594500
   0.75045500  0.75049300  0.24963400
   0.00015500  0.75009600  0.50002400
   0.75017200  0.24975400  0.24986700
   0.00001300  0.24992000  0.50002200
   0.75047400  0.75098000  0.75043000
   0.00001900  0.74981100  0.00005200
   0.24931300  0.75068600  0.24941300
   0.49928700  0.75459400  0.49878000
   0.75031800  0.24953700  0.75035700
   0.00001800  0.25004900  0.00000100
   0.24967000  0.75032600  0.75036700
   0.49993300  0.75009600  0.00002000
   0.24988500  0.24971100  0.75020200
   0.49999600  0.24993900  0.00005700
   0.00010800  0.75016100  0.24992600
   0.24976400  0.74974500  0.50004800
   0.99994000  0.24987000  0.24991400
   0.00012600  0.75009000  0.75017000
   0.24977600  0.75019900  0.99990200
   0.49987900  0.75009000  0.24968400
   0.75082800  0.75020400  0.50016900
   0.99997800  0.24987100  0.75006700
   0.24988800  0.24989700  0.99993900
   0.75025400  0.24974800  0.50008400
   0.49993400  0.74982100  0.75031500
   0.75026400  0.75010900  0.00016600
   0.49992900  0.24970100  0.75017700
   0.75012900  0.24984500  0.00008100
   0.99994700  0.00008200  0.24992800
   0.24972800  0.99976300  0.49998600
   0.00011100  0.49978300  0.24991200
   0.00001200  0.00005900  0.75006700
   0.24991200  0.00006500  0.99993800
   0.50011100  0.99979800  0.24987200
   0.75023900  0.00034800  0.50005600
   0.00008700  0.49991500  0.75018000
   0.24977700  0.49975000  0.99990900
   0.75076500  0.49962500  0.50015900
   0.49995400  0.00033800  0.75020700
   0.75011400  0.00006500  0.00007700
   0.49986900  0.50019600  0.75024200
   0.75029100  0.49989500  0.00017200
   0.75015900  0.00020700  0.24986900
   0.00000300  0.00005800  0.50002000
   0.75045300  0.49948200  0.24962000
   0.00016600  0.49986700  0.50001400
   0.75024400  0.00022200  0.75026200
   0.00001600  0.99998700  0.00001700
   0.24975700  0.00043200  0.24979200
   0.50015400  0.00164400  0.50017000
   0.75053600  0.49930100  0.75051700
   0.00002000  0.50004500  0.00002500
   0.24987400  0.00010600  0.75017100
   0.50000200  0.00004300  0.00005700
   0.24969200  0.49983800  0.75039900
   0.49992500  0.49982800  0.00001200
   0.98416700  0.12497400  0.23069200
   0.23467300  0.12492500  0.48095100
   0.98459400  0.62496100  0.23113900
   0.23228000  0.62506700  0.48012500
   0.98439900  0.12495900  0.73050600
   0.23428400  0.12497100  0.98050900
   0.48454100  0.12500500  0.23153900
   0.73368000  0.12502700  0.48018700
   0.98434900  0.62498900  0.73078400
   0.23422200  0.62496200  0.98137400
   0.48501200  0.62506400  0.22943400
   0.48407600  0.12502500  0.72942900
   0.73432200  0.12495100  0.98064400
   0.73465400  0.62498800  0.98107800
   0.23063900  0.87537300  0.23412300
   0.47963800  0.87112300  0.48319700
   0.23125200  0.37467900  0.23449400
   0.23085200  0.87498700  0.73409200
   0.48056300  0.87491200  0.98441900
   0.73081800  0.87511700  0.23400600
   0.98081000  0.87493500  0.48419800
   0.23175700  0.37499800  0.73390100
   0.48051000  0.37506200  0.98422000
   0.73088200  0.37483900  0.23393200
   0.98075000  0.37504900  0.48425600
   0.73022100  0.87525400  0.73464500
   0.98092000  0.87489300  0.98447400
   0.98064000  0.37505800  0.98429800
   0.76938400  0.12497900  0.26601700
   0.01934600  0.12497500  0.51580300
   0.76656400  0.62497800  0.26711000
   0.01907800  0.62496300  0.51571000
   0.76974400  0.12494200  0.76604700
   0.01920000  0.12500400  0.01558400
   0.27007600  0.12496200  0.26580400
   0.51893300  0.12512800  0.51529400
   0.76677500  0.62515300  0.76447300
   0.01977700  0.62492700  0.01587900
   0.26961200  0.12492300  0.76600900
   0.51938100  0.12497500  0.01571300
   0.26718600  0.62505800  0.76809000
   0.51896400  0.62495800  0.01592300
   0.01548200  0.87504300  0.26946200
   0.26692100  0.87449300  0.51980700
   0.01555400  0.37490200  0.26948100
   0.01570600  0.87497200  0.76923200
   0.26568500  0.87502800  0.01932900
   0.51561800  0.87461200  0.27194400
   0.76521400  0.87498100  0.51940900
   0.01564400  0.37498800  0.76914900
   0.26567000  0.37491500  0.01935000
   0.76544500  0.37497800  0.51972100
   0.51563600  0.87477900  0.76790600
   0.76573300  0.87497400  0.01950000
   0.51562500  0.37528800  0.76794600
   0.76572800  0.37497900  0.01931700
   0.87385100  0.98206100  0.22457500
   0.12413300  0.98195200  0.47462300
   0.87397200  0.48217300  0.22443500
   0.12468000  0.48202700  0.47474200
   0.87382000  0.98199600  0.72449400
   0.12394700  0.98208800  0.97453500
   0.37400800  0.98194300  0.22457000
   0.62327600  0.98184700  0.47480800
   0.87372100  0.48219800  0.72446800
   0.12392500  0.48192000  0.97435200
   0.37398900  0.48223700  0.22484800
   0.37402900  0.98213300  0.72458700
   0.62381300  0.98207900  0.97467300
   0.62382600  0.48212200  0.97478100
   0.97458900  0.01796400  0.37400900
   0.22462300  0.01791800  0.62382600
   0.97449000  0.51784300  0.37403300
   0.22454400  0.51812300  0.62386000
   0.97454100  0.01790600  0.87385900
   0.22454300  0.01810100  0.12396700
   0.47437600  0.01772500  0.37457500
   0.72447600  0.01798100  0.62384800
   0.97445800  0.51800700  0.87385700
   0.22428000  0.51737400  0.12383300
   0.47466200  0.01791700  0.87370300
   0.72447300  0.01801400  0.12398100
   0.47470200  0.51819500  0.87347900
   0.72468300  0.51793800  0.12397100
   0.02556100  0.76792200  0.12619200
   0.27542900  0.76777700  0.37613700
   0.02547100  0.26793100  0.12614300
   0.02543900  0.76797100  0.62604600
   0.27559400  0.76816500  0.87597800
   0.52481500  0.76817700  0.12673900
   0.77525400  0.76786500  0.37625200
   0.02544500  0.26796300  0.62602700
   0.27553700  0.26796300  0.87607000
   0.52535000  0.26817500  0.12634700
   0.77533100  0.26803600  0.37625300
   0.52781000  0.76462200  0.62465200
   0.77572600  0.76799600  0.87602700
   0.77545700  0.26787600  0.87610500
   0.12619500  0.23198000  0.27551000
   0.37653700  0.23225500  0.52560000
   0.12616000  0.73258300  0.27593700
   0.12617200  0.23210900  0.77546100
   0.37616500  0.23206100  0.02545400
   0.62601400  0.23226000  0.27549700
   0.87579400  0.23202000  0.52545100
   0.12609100  0.73228300  0.77552900
   0.37616500  0.73218200  0.02532200
   0.87593300  0.73201400  0.52544700
   0.62600200  0.23200700  0.77530100
   0.87606500  0.23206100  0.02552200
   0.62600600  0.73263700  0.77701700
   0.87605500  0.73184300  0.02564400
   0.87394600  0.76780500  0.22444000
   0.12467500  0.76805400  0.47472600
   0.87386500  0.26793900  0.22457000
   0.12406100  0.26801200  0.47463800
   0.87369900  0.76791500  0.72448400
   0.12392900  0.76797300  0.97441500
   0.37397100  0.76782500  0.22493600
   0.62312100  0.76511400  0.47305900
   0.87383600  0.26789900  0.72445800
   0.12394300  0.26799400  0.97448400
   0.37401400  0.26799700  0.22452900
   0.37406300  0.76764100  0.72448500
   0.62383600  0.76789100  0.97476600
   0.62382100  0.26787800  0.97469000
   0.97458800  0.23204500  0.37398800
   0.22464000  0.23205000  0.62385500
   0.97448200  0.73212300  0.37403100
   0.22447500  0.73191800  0.62383100
   0.97452400  0.23206500  0.87385400
   0.22451900  0.23193000  0.12397700
   0.47437600  0.23230100  0.37448300
   0.72453700  0.23207000  0.62391100
   0.97447400  0.73200100  0.87385500
   0.22434800  0.73255600  0.12384300
   0.47466000  0.23208800  0.87365200
   0.72447000  0.23197700  0.12400200
   0.47469800  0.73179500  0.87348400
   0.72468300  0.73205500  0.12396800
   0.12619000  0.01806200  0.27553500
   0.37665500  0.01763000  0.52554200
   0.12616700  0.51740200  0.27587200
   0.12616700  0.01796200  0.77547300
   0.37618300  0.01792500  0.02545600
   0.62601600  0.01777000  0.27552500
   0.87588700  0.01797100  0.52545900
   0.12609200  0.51762800  0.77550500
   0.37617000  0.51780300  0.02532200
   0.87590000  0.51796600  0.52541000
   0.62600900  0.01809900  0.77538900
   0.87605300  0.01791800  0.02551200
   0.62600600  0.51711400  0.77694400
   0.87606700  0.51815100  0.02565900
   0.02545900  0.98209900  0.12615800
   0.27534800  0.98212300  0.37618500
   0.02557600  0.48201800  0.12617600
   0.02545500  0.98200400  0.62602300
   0.27553000  0.98199300  0.87606100
   0.52531200  0.98183700  0.12637900
   0.77538400  0.98199600  0.37624000
   0.02541800  0.48205300  0.62603200
   0.27562500  0.48186800  0.87600000
   0.52490700  0.48184600  0.12669600
   0.77522100  0.48208400  0.37626200
   0.52543300  0.98181800  0.62539200
   0.77544100  0.98197300  0.87607200
   0.77577500  0.48217500  0.87605900
   0.38296300  0.37471200  0.35026600
   0.63791100  0.37480200  0.60649800
   0.61066200  0.62493900  0.37933300
   0.34933600  0.62515900  0.63906600
   0.39487700  0.37485100  0.61560100
   0.64783500  0.37465400  0.36382100
   0.62116700  0.62497600  0.65757700
   0.35746000  0.62511400  0.39043100
   0.24977000  0.24946000  0.24980400
   0.50009300  0.24871700  0.50017400
   0.50007100  0.25028800  0.24987700
   0.24970200  0.25006900  0.50001200
   0.49983600  0.49999800  0.24972600
   0.24982800  0.50046200  0.50002600
   0.24934100  0.49947500  0.24939600
   0.49919500  0.49510100  0.49875300
   0.48445700  0.62502500  0.72729800
   0.73418700  0.62490400  0.48132700
   0.73131700  0.37484500  0.73556600
   0.47764400  0.37893600  0.48312800
   0.26573800  0.62507600  0.26186600
   0.51524000  0.37546100  0.27202600
   0.26649300  0.37552000  0.51946600
   0.37406300  0.48271000  0.72438800
   0.62310000  0.48385100  0.47342800
   0.47671700  0.52482500  0.37577600
   0.72468000  0.51737900  0.62385500
   0.52528200  0.26838400  0.62533400
   0.27525600  0.26764000  0.37622400
   0.62603900  0.73381700  0.27344200
   0.37778800  0.72781900  0.52469100
   0.37403200  0.26781300  0.72475300
   0.62312600  0.26856700  0.47532500
   0.47650800  0.72555800  0.37580800
   0.72465400  0.73256400  0.62381900
   0.62604900  0.51611800  0.27338900
   0.37777800  0.52381500  0.52396000
   0.52732200  0.48474800  0.62461500
   0.27533600  0.48248200  0.37616100

 position of ions in cartesian coordinates  (Angst):
   8.96841324 20.58906382 20.02772090
  -7.87307000 20.58866385 11.95003120
   8.96873320  8.82015032 20.02799555
  -7.87692637  8.82090321 11.95402173
   0.54755374 20.59101661 28.11549191
   0.54869886 20.58984023  3.86268025
   0.55967856 20.59362817 11.86346757
   0.54516245 20.58958142 20.05870803
   0.54691382  8.81824459 28.10980501
   0.54644230  8.81932686  3.86965962
  -7.87310368 20.59073428 20.02894875
   8.97055192 20.58711102 11.94814096
  -7.87258164  8.81906805 20.02586296
   8.97174757  8.82203253 11.94883566
  -4.75811821  2.94139902  7.90940920
  -4.77061352  2.93979915 15.97595128
  -4.76882847 14.70414828  7.88313961
 -13.17872511  2.94144608 15.98776129
   3.66991515  2.94090494  7.91154179
   3.68544166  2.94229307 15.97717914
   3.66412218  2.94095200 24.07360974
 -13.17424566 14.70386595 15.99215571
   3.67589336 14.70476000  7.89966716
   3.66435794 14.70438356 24.07684094
  -4.75545748  2.94184605 24.07432061
  12.08483012  2.94069320 15.98843984
  -4.77509296 14.70358362 24.10194730
  12.06824268 14.70485411 15.99672785
  13.17963447 20.58828741 16.32519469
  -3.66452634 20.59106366  8.23617967
  13.17970183  8.82095026 16.32425765
  -3.66508206  8.81857397  8.23861922
   4.76076209 20.59005198 24.40750499
 -12.08562160 20.59038136 16.32285208
   4.75203896 20.58753452  8.23422480
   4.78053230 20.59080486 16.34538964
   4.76050949  8.81958566 24.41059078
 -12.07870034  8.81869161 16.32183425
   4.75397556  8.82127965  8.23472563
  -3.69285128 20.58934615 16.34007433
  -3.67343471 20.59120483 24.40307826
  -3.67671852  8.81793873 24.40277129
  -0.54768846  2.94078731  4.19904736
  -0.54834522  2.94111669 12.27429750
  -0.54603813 14.70494822  4.21319998
  -8.96745336  2.94034028 12.28525124
  -8.97157917  2.94090494 20.36680221
   7.87357520  2.94102258 12.28491196
   7.87739789  2.94118728 20.36442728
  -8.97326317 14.70499528 12.27996824
  -8.98501751 14.70461883 20.37022727
   7.89472629 14.70466589 12.27806184
   7.88059750 14.70440709 20.36019442
  -0.54794106  2.94182252 20.38510691
  -0.54869886  2.94045792 28.45095428
  -0.54241753 14.70527761 28.42932145
   8.43384317 17.65731111 16.15739888
  -8.41781146 17.64797065  8.08087242
   8.42515371  5.87611621 16.15659108
  -8.42016906  5.88002179  8.07854596
   0.00074096 17.66876906 24.24854649
  -0.00055572 17.64126528  0.00114707
  -0.00168400 17.66185194  8.05739781
   0.00853790 17.75379787 16.12473153
  -0.00065676  5.87101071 24.24484677
   0.00028628  5.88305685  0.00030696
  -8.43175500 17.65338200 16.15655877
   8.41855242 17.64797065  8.07722117
  -8.42535579  5.87510452 16.15736657
   8.41899026  5.88046882  8.07883677
  -4.20694386 17.64949995  4.03953955
  -4.21479132 17.63971246 12.11393343
  12.63046409  5.87884541 20.19259248
 -12.63076721 17.64782949 12.12175291
 -12.63214809 17.65039400 20.18974903
   4.21329256 17.64782949 12.10991060
   4.22110633 17.65051163 20.21105874
   4.20850999  5.87886894 28.27365877
 -12.63088509  5.87948066 20.19215627
   4.21287156  5.87597504 20.20041196
  -4.21642480 17.64150056 20.19897408
  12.63167657 17.64827651 12.12391781
  -4.21418508  5.87486924 20.19666378
  12.63083457  5.87825722 12.12036350
  12.63034621  0.00192926 20.19293175
  -4.21435348 23.52203996 12.11235015
  -4.20665758 11.75870251  4.03936184
 -12.63095245  0.00138813 12.11824707
 -12.63046409  0.00152930 20.19252786
   4.21403352 23.52286342 12.11669610
   4.21309048  0.00818761 20.19971726
 -12.63159237 11.76180815 12.12128439
 -12.63224913 11.75792610 20.18987828
   4.22021381 11.75498514 20.20987936
  -4.21426928  0.00795233 20.19755236
  12.63064933  0.00152930 12.12005654
  -4.21629008 11.76841941 20.19674456
  12.63203021 11.76133760 12.12445096
   8.42490111  0.00487022 16.15641337
  -8.42030378  0.00136460  8.07835209
   8.43404525 11.75162069 16.15714039
  -8.41745781 11.76067883  8.08088857
  -0.00030312  0.00522313 24.24211642
  -0.00001684 23.52731014  0.00053315
  -0.00058940  0.01016393  8.07069416
  -0.00026944  0.03867940 16.16119553
   0.00031996 11.74736220 24.25095373
  -0.00008420 11.76486674  0.00072702
  -8.42501899  0.00249393 16.15668802
   8.41909130  0.00101169  8.07893370
  -8.43192340 11.75999653 16.15743119
   8.41855242 11.75976125  8.07696267
  12.68854537  2.94034028 19.62721462
  -4.14733014  2.93918743 11.56159343
  12.68820857 14.70384242 19.64133493
  -4.17371847 14.70633635 11.50958740
   4.27556701  2.93998737 27.70593830
 -12.56645512  2.94026970 19.62614833
   4.26056254  2.94106964 11.56896055
   4.26883099  2.94158725 19.61118791
   4.27004347 14.70450120 27.70962186
 -12.58206583 14.70386595 19.63912157
   4.30394247 14.70626577 11.54256171
  -4.13175311  2.94154019 19.60533945
  -4.14807110  2.93979915 27.70692381
  -4.14978878 14.70447767 27.71929928
  -0.05867068 20.59543980  7.50867675
  -0.05993368 20.49544743 15.55552471
  -0.05459539  8.81530364  7.52457421
  -8.47457921 20.58635814 15.58959763
  -8.48495267 20.58459357 23.66819206
   8.36633147 20.58941673 15.58765892
   8.36296346 20.58513470 23.66861211
  -8.45612254  8.82280894 15.60113299
  -8.48249403  8.82431471 23.66412076
   8.36865539  8.81906805 15.58749736
   8.36097634  8.82400885 23.66857980
  -0.07450031 20.59264001 23.66631797
  -0.05984948 20.58414655 31.75282881
  -0.06160085  8.82422060 31.74546170
   8.47671790  2.94045792 16.72789818
  -8.36035326  2.94036381  8.64584637
   8.41082284 14.70424239 16.69999683
  -8.36330026 14.70388948  8.64001407
   0.06225761  2.93958740 24.81217950
   0.06089357  2.94104611  0.56196895
   0.07194063  2.94005795  8.65765638
   0.06128089  2.94396353 16.70893108
   0.03876576 14.70835973 24.73878297
   0.06564246 14.70304248  0.57605695
  -8.35934285  2.93914037 16.73145249
   8.48178675  2.94036381  8.64495780
  -8.43524089 14.70612460 16.72587868
   8.47122805 14.70377184  8.64161351
  -4.27703209 20.58767569  4.60354415
  -4.25860909 20.57473550 12.71034689
  -4.27613957  8.82055029  4.60501434
 -12.68940421 20.58600523 12.68142772
   4.14864366 20.58732277  4.60467507
   4.10347869 20.57753528 12.72382096
   4.13936480 20.58621698 20.75431909
 -12.68905057  8.82257367 12.67908510
   4.14803742  8.82085615  4.60477200
   4.13800076  8.82233839 20.76309177
  -4.24823563 20.58146440 20.73685449
  12.56658984 20.58605228 12.68619372
  -4.24909447  8.82963195 20.73732302
  12.56958736  8.82236192 12.68315640
  10.93383056 23.10555410 17.74612762
  -5.90226387 23.10298959  9.67347858
  10.93822581 11.34438119 17.74582065
  -5.89505633 11.34094616  9.68423845
   2.51465507 23.10402480 25.82229865
 -14.32393169 23.10618934 17.74703235
   2.51654115 23.10277784  9.67060282
   2.50020632 23.10051919 17.74060228
   2.51342574 11.34496938 25.82027915
 -14.32122044 11.33842870 17.74372038
   2.51153966 11.34588696  9.67478722
  -5.90340899 23.10724808 17.74919725
  -5.90849468 23.10597759 25.82507748
[...]
     -1.69325     23.10403     26.68088        -0.000377      0.000757     -0.000556
     -1.68828     11.34368     26.68672         0.000451      0.000579     -0.000977
      0.54894      8.81513     11.84283         0.001754      0.000204      0.001092
      0.52288      8.81887     20.10166        -0.000225      0.000379     -0.002517
      3.90007     14.70335     15.99670         0.000155      0.000417     -0.000043
     -4.87460     14.70825     15.97267        -0.000143     -0.000185      0.000629
     -3.71388      8.81854     16.32753         0.004421      0.000313      0.000863
      4.77892      8.81554     16.34228         0.000730      0.000418     -0.000970
     -0.61129     14.70455     20.66038        -0.003237      0.000314     -0.000865
     -0.55124     14.70633     12.07747        -0.001155      0.000002     -0.000228
     -0.00059      5.86819      8.07068         0.000527      0.000304     -0.001090
     -0.00072      5.85065     16.15966         0.001445      0.001509      0.000317
      4.21286      5.88790     12.11681         0.000130      0.001067      0.000386
     -4.21451      5.88495     12.11290        -0.001715      0.001331     -0.000354
      4.21209     11.76300     12.10952        -0.001381      0.000729      0.001841
     -4.21342     11.77495     12.11513         0.000536      0.000227      0.000515
     -0.00140     11.75096      8.05669         0.001625      0.000873      0.000708
      0.00890     11.64488     16.12083         0.001977     -0.000971     -0.000939
     -4.09866     14.70492     19.58333        -0.002455     -0.000201      0.003918
      4.25647     14.70259     19.64014         0.000483      0.000662      0.001750
     -0.06641      8.81840     23.69839         0.000326     -0.000169     -0.000120
     -0.08337      8.91212     15.52582         0.004481      0.001547      0.002333
      0.06016     14.70648      8.52219        -0.000226     -0.000474     -0.003409
      4.09882      8.83361     12.71834        -0.000839     -0.000405     -0.001421
     -4.25546      8.83562     12.69657         0.000768     -0.000349      0.000728
     -5.89867     11.35368     17.74834        -0.001597     -0.000661     -0.000423
      2.52296     11.38851     17.71514         0.000186      0.003239     -0.000455
      1.69906     12.35123     13.77429         0.002112      0.000624     -0.001175
      1.69564     12.17085     21.78741        -0.000090     -0.000761      0.000503
     -1.68233      6.31203     18.58940        -0.002327     -0.001696      0.002191
     -1.69875      6.29683     10.52385        -0.001223     -0.001297      0.000246
      5.93590     17.26579     14.53070         0.001456      0.001578     -0.000064
     -2.47530     17.12346     14.57824         0.001650      0.000261      0.000732
     -5.90237      6.29816     17.75093        -0.000722      0.000482      0.000254
      2.49399      6.31606     17.74540         0.000930     -0.002865     -0.001049
      1.69469     17.06597     13.77008         0.002472     -0.001286     -0.001636
      1.69604     17.23784     21.78645         0.000530      0.000969      0.000465
      5.93646     12.14127     14.53055         0.001312     -0.001738     -0.000109
     -2.46334     12.32208     14.56931         0.001770     -0.001939      0.000803
     -1.63496     11.40996     18.60938        -0.000393      0.004874      0.001268
     -1.69616     11.35152     10.52407        -0.000205      0.000984     -0.000997
 -----------------------------------------------------------------------------------
    total drift:                                0.052367     -0.003525     -0.098824


--------------------------------------------------------------------------------------------------------



  FREE ENERGIE OF THE ION-ELECTRON SYSTEM (eV)
  ---------------------------------------------------
  free  energy   TOTEN  =    -11418.47555517 eV

  energy  without entropy=   -11418.47555517  energy(sigma->0) =   -11418.47555517

 d Force = 0.5391881E-03[ 0.212E-03, 0.866E-03]  d Energy = 0.6128810E-03-0.737E-04
 d Force = 0.2495723E+00[ 0.241E+00, 0.258E+00]  d Ewald  = 0.2495899E+00-0.176E-04


--------------------------------------------------------------------------------------------------------


    POTLOK:  cpu time    4.0009: real time    4.0011


--------------------------------------------------------------------------------------------------------


 stress matrix after NEB project (eV)
    -15.37044     -0.01329      0.17840
     -0.01328    -17.82444     -0.01675
      0.17852     -0.01676    -19.09745
  FORCES: max atom, RMS     0.005284    0.001919
  FORCE total and by dimension    0.034269    0.004874
  Stress total and by dimension   30.310691   19.097446


--------------------------------------------------------------------------------------------------------


  
 reached required accuracy - stopping structural energy minimisation
     LOOP+:  cpu time  482.8348: real time  483.0993
    4ORBIT:  cpu time    0.0000: real time    0.0000



 total charge     

# of ion       s       p       d       tot
------------------------------------------
    1        1.786   4.719   0.019   6.523
    2        1.786   4.719   0.019   6.523
    3        1.786   4.719   0.019   6.523
    4        1.786   4.719   0.019   6.523
    5        1.786   4.719   0.019   6.523
    6        1.786   4.719   0.019   6.523
    7        1.786   4.719   0.019   6.524
    8        1.786   4.719   0.019   6.523
    9        1.786   4.719   0.019   6.523
   10        1.786   4.719   0.019   6.523
   11        1.786   4.719   0.019   6.523
   12        1.786   4.719   0.019   6.523
   13        1.786   4.719   0.019   6.523
   14        1.786   4.719   0.019   6.523
   15        1.786   4.719   0.019   6.523
   16        1.786   4.719   0.019   6.524
   17        1.786   4.719   0.019   6.524
   18        1.786   4.719   0.019   6.523
   19        1.786   4.719   0.019   6.523
   20        1.786   4.719   0.019   6.523
   21        1.786   4.719   0.019   6.523
   22        1.786   4.719   0.019   6.523
   23        1.786   4.719   0.019   6.523
   24        1.786   4.719   0.019   6.523
   25        1.786   4.719   0.019   6.523
   26        1.786   4.719   0.019   6.523
   27        1.786   4.719   0.019   6.524
   28        1.786   4.719   0.018   6.523
   29        1.786   4.719   0.019   6.523
   30        1.786   4.719   0.019   6.523
   31        1.786   4.719   0.019   6.523
   32        1.786   4.719   0.019   6.523
   33        1.786   4.719   0.019   6.523
   34        1.786   4.719   0.019   6.523
   35        1.786   4.719   0.019   6.523
   36        1.786   4.719   0.019   6.523
   37        1.786   4.719   0.019   6.523
   38        1.786   4.719   0.019   6.523
   39        1.786   4.719   0.019   6.523
   40        1.786   4.719   0.018   6.523
   41        1.786   4.719   0.019   6.523
   42        1.786   4.719   0.019   6.523
   43        1.786   4.719   0.019   6.523
   44        1.786   4.719   0.019   6.524
   45        1.786   4.719   0.019   6.523
   46        1.786   4.719   0.019   6.523
   47        1.786   4.719   0.019   6.523
   48        1.786   4.719   0.019   6.523
   49        1.786   4.719   0.019   6.523
   50        1.786   4.719   0.019   6.523
   51        1.786   4.719   0.019   6.523
   52        1.786   4.719   0.019   6.523
   53        1.786   4.719   0.019   6.523
   54        1.786   4.719   0.019   6.523
   55        1.786   4.719   0.019   6.524
   56        1.786   4.719   0.018   6.523
   57        1.555   0.417   9.834  11.806
   58        1.554   0.415   9.833  11.802
   59        1.554   0.416   9.833  11.804
   60        1.554   0.415   9.833  11.803
   61        1.554   0.418   9.833  11.805
   62        1.554   0.415   9.833  11.803
   63        1.554   0.418   9.834  11.806
   64        1.533   0.456   9.832  11.820
   65        1.555   0.417   9.833  11.805
   66        1.554   0.416   9.833  11.803
   67        1.554   0.417   9.833  11.804
   68        1.554   0.415   9.833  11.802
   69        1.554   0.416   9.833  11.804
   70        1.554   0.415   9.833  11.803
   71        1.554   0.416   9.833  11.804
   72        1.554   0.415   9.833  11.802
   73        1.554   0.416   9.833  11.804
   74        1.554   0.416   9.833  11.803
   75        1.554   0.416   9.833  11.804
   76        1.554   0.415   9.833  11.803
   77        1.554   0.417   9.833  11.804
   78        1.554   0.416   9.833  11.803
   79        1.554   0.416   9.833  11.804
   80        1.554   0.416   9.833  11.803
   81        1.554   0.415   9.833  11.803
   82        1.554   0.416   9.833  11.804
   83        1.554   0.416   9.833  11.803
   84        1.554   0.416   9.833  11.803
   85        1.554   0.416   9.833  11.804
   86        1.554   0.415   9.833  11.803
   87        1.554   0.416   9.833  11.804
   88        1.554   0.416   9.833  11.803
   89        1.554   0.416   9.833  11.804
   90        1.554   0.415   9.833  11.802
   91        1.554   0.416   9.833  11.803
   92        1.554   0.416   9.833  11.804
   93        1.554   0.416   9.833  11.804
   94        1.554   0.417   9.833  11.804
   95        1.554   0.415   9.833  11.803
   96        1.554   0.416   9.833  11.803
   97        1.554   0.415   9.833  11.803
   98        1.554   0.416   9.833  11.804
   99        1.554   0.416   9.833  11.804
  100        1.554   0.415   9.833  11.803
  101        1.555   0.417   9.834  11.806
  102        1.554   0.415   9.833  11.802
  103        1.555   0.416   9.833  11.804
  104        1.554   0.416   9.833  11.803
  105        1.555   0.417   9.834  11.805
  106        1.551   0.418   9.833  11.801
  107        1.554   0.418   9.834  11.806
  108        1.554   0.415   9.833  11.803
  109        1.554   0.416   9.833  11.804
  110        1.554   0.415   9.833  11.803
  111        1.554   0.417   9.833  11.804
  112        1.554   0.415   9.833  11.802
  113        1.614   3.285   0.006   4.906
  114        1.614   3.285   0.006   4.905
  115        1.614   3.285   0.006   4.905
  116        1.614   3.286   0.006   4.906
  117        1.614   3.285   0.006   4.906
  118        1.614   3.285   0.006   4.906
  119        1.614   3.285   0.006   4.905
  120        1.614   3.285   0.006   4.905
  121        1.614   3.285   0.006   4.906
  122        1.614   3.285   0.006   4.906
  123        1.614   3.285   0.006   4.906
  124        1.614   3.285   0.006   4.906
  125        1.614   3.285   0.006   4.906
  126        1.614   3.286   0.006   4.906
  127        1.614   3.286   0.006   4.906
  128        1.616   3.277   0.007   4.900
  129        1.614   3.286   0.006   4.906
  130        1.614   3.285   0.006   4.905
  131        1.614   3.285   0.006   4.905
  132        1.614   3.286   0.006   4.906
  133        1.614   3.285   0.006   4.905
  134        1.614   3.285   0.006   4.906
  135        1.614   3.285   0.006   4.905
  136        1.614   3.286   0.006   4.906
  137        1.614   3.285   0.006   4.905
  138        1.614   3.286   0.006   4.907
  139        1.614   3.285   0.006   4.906
  140        1.614   3.285   0.006   4.906
  141        1.614   3.285   0.006   4.906
  142        1.614   3.285   0.006   4.905
  143        1.614   3.285   0.006   4.905
  144        1.614   3.285   0.006   4.905
  145        1.614   3.285   0.006   4.906
  146        1.614   3.285   0.006   4.906
  147        1.614   3.286   0.006   4.907
  148        1.615   3.281   0.007   4.902
  149        1.614   3.286   0.006   4.906
  150        1.614   3.285   0.006   4.905
  151        1.614   3.285   0.006   4.906
  152        1.614   3.285   0.006   4.905
  153        1.614   3.286   0.006   4.907
  154        1.614   3.286   0.006   4.906
  155        1.614   3.285   0.006   4.906
  156        1.614   3.285   0.006   4.905
  157        1.614   3.285   0.006   4.906
  158        1.614   3.285   0.006   4.906
  159        1.614   3.285   0.006   4.906
  160        1.614   3.285   0.006   4.905
  161        1.614   3.285   0.006   4.906
  162        1.614   3.285   0.006   4.905
  163        1.614   3.285   0.006   4.906
  164        1.614   3.285   0.006   4.906
  165        1.614   3.285   0.006   4.905
  166        1.614   3.285   0.006   4.905
  167        1.614   3.285   0.006   4.905
  168        1.614   3.285   0.006   4.905
  169        1.614   3.284   0.006   4.903
  170        1.614   3.283   0.006   4.903
  171        1.614   3.284   0.006   4.904
  172        1.614   3.283   0.006   4.903
  173        1.614   3.284   0.006   4.903
  174        1.614   3.284   0.006   4.904
  175        1.614   3.284   0.006   4.904
  176        1.614   3.283   0.006   4.903
  177        1.614   3.283   0.006   4.903
  178        1.614   3.283   0.006   4.903
  179        1.614   3.284   0.006   4.904
  180        1.614   3.284   0.006   4.904
  181        1.614   3.284   0.006   4.904
  182        1.614   3.284   0.006   4.904
  183        1.614   3.284   0.006   4.904
  184        1.614   3.284   0.006   4.904
  185        1.614   3.284   0.006   4.904
  186        1.614   3.284   0.006   4.904
  187        1.614   3.284   0.006   4.904
  188        1.614   3.283   0.006   4.903
  189        1.614   3.283   0.006   4.903
  190        1.614   3.284   0.006   4.904
  191        1.614   3.283   0.006   4.903
  192        1.614   3.284   0.006   4.904
  193        1.614   3.283   0.006   4.903
  194        1.614   3.284   0.006   4.903
  195        1.614   3.282   0.006   4.902
  196        1.614   3.284   0.006   4.904
  197        1.614   3.283   0.006   4.903
  198        1.614   3.285   0.006   4.905
  199        1.614   3.284   0.006   4.904
  200        1.614   3.284   0.006   4.904
  201        1.614   3.284   0.006   4.904
  202        1.614   3.283   0.006   4.902
  203        1.614   3.284   0.006   4.904
  204        1.614   3.284   0.006   4.904
  205        1.614   3.284   0.006   4.904
  206        1.614   3.283   0.006   4.903
  207        1.614   3.284   0.006   4.904
  208        1.614   3.281   0.006   4.901
  209        1.614   3.283   0.006   4.904
  210        1.614   3.284   0.006   4.904
  211        1.614   3.284   0.006   4.904
  212        1.614   3.283   0.006   4.903
  213        1.614   3.284   0.006   4.904
  214        1.614   3.284   0.006   4.903
  215        1.614   3.284   0.006   4.904
  216        1.614   3.284   0.006   4.904
  217        1.614   3.283   0.006   4.903
  218        1.614   3.283   0.006   4.904
  219        1.614   3.284   0.006   4.904
  220        1.614   3.283   0.006   4.903
  221        1.614   3.284   0.006   4.904
  222        1.614   3.284   0.006   4.904
  223        1.614   3.285   0.006   4.905
  224        1.614   3.283   0.006   4.903
  225        1.614   3.284   0.006   4.904
  226        1.614   3.283   0.006   4.903
  227        1.614   3.284   0.006   4.903
  228        1.614   3.283   0.006   4.903
  229        1.614   3.283   0.006   4.903
  230        1.614   3.284   0.006   4.903
  231        1.614   3.284   0.006   4.904
  232        1.614   3.282   0.006   4.902
  233        1.614   3.284   0.006   4.904
  234        1.614   3.284   0.006   4.904
  235        1.614   3.284   0.006   4.904
  236        1.614   3.284   0.006   4.904
  237        1.614   3.284   0.006   4.904
  238        1.614   3.284   0.006   4.904
  239        1.614   3.284   0.006   4.904
  240        1.614   3.284   0.006   4.904
  241        1.614   3.284   0.006   4.904
  242        1.614   3.284   0.006   4.904
  243        1.614   3.284   0.006   4.904
  244        1.614   3.283   0.006   4.903
  245        1.614   3.283   0.006   4.903
  246        1.614   3.284   0.006   4.904
  247        1.614   3.283   0.006   4.903
  248        1.614   3.284   0.006   4.904
  249        1.614   3.283   0.006   4.903
  250        1.614   3.284   0.006   4.904
  251        1.614   3.282   0.006   4.902
  252        1.614   3.284   0.006   4.904
  253        1.614   3.284   0.006   4.903
  254        1.614   3.283   0.006   4.903
  255        1.614   3.284   0.006   4.904
  256        1.614   3.283   0.006   4.903
  257        1.614   3.284   0.006   4.904
  258        1.614   3.284   0.006   4.904
  259        1.614   3.283   0.006   4.903
  260        1.614   3.283   0.006   4.904
  261        1.614   3.284   0.006   4.904
  262        1.614   3.283   0.006   4.903
  263        1.614   3.284   0.006   4.904
  264        1.614   3.284   0.006   4.904
  265        1.614   3.285   0.006   4.905
  266        1.614   3.283   0.006   4.903
  267        1.614   3.284   0.006   4.904
  268        1.614   3.284   0.006   4.904
  269        1.614   3.283   0.006   4.903
  270        1.614   3.284   0.006   4.904
  271        1.614   3.284   0.006   4.903
  272        1.614   3.283   0.006   4.903
  273        1.614   3.284   0.006   4.904
  274        1.614   3.284   0.006   4.904
  275        1.614   3.284   0.006   4.904
  276        1.614   3.282   0.006   4.902
  277        1.614   3.284   0.006   4.904
  278        1.614   3.283   0.006   4.903
  279        1.614   3.283   0.006   4.903
  280        1.614   3.284   0.006   4.904
  281        1.786   4.719   0.019   6.524
  282        1.786   4.719   0.019   6.523
  283        1.786   4.718   0.018   6.522
  284        1.787   4.719   0.020   6.525
  285        1.786   4.718   0.018   6.522
  286        1.786   4.719   0.019   6.523
  287        1.787   4.719   0.020   6.525
  288        1.787   4.719   0.020   6.525
  289        1.555   0.417   9.834  11.805
  290        1.551   0.417   9.833  11.801
  291        1.554   0.415   9.833  11.802
  292        1.554   0.415   9.833  11.803
  293        1.554   0.415   9.833  11.802
  294        1.554   0.415   9.833  11.802
  295        1.554   0.418   9.834  11.806
  296        1.533   0.455   9.832  11.820
  297        1.614   3.286   0.006   4.906
  298        1.614   3.286   0.006   4.906
  299        1.614   3.287   0.006   4.908
  300        1.616   3.277   0.007   4.900
  301        1.614   3.289   0.006   4.909
  302        1.614   3.285   0.006   4.905
  303        1.614   3.285   0.006   4.905
  304        1.614   3.284   0.006   4.904
  305        1.614   3.282   0.006   4.902
  306        1.614   3.280   0.006   4.900
  307        1.614   3.285   0.006   4.905
  308        1.614   3.283   0.006   4.903
  309        1.614   3.285   0.006   4.904
  310        1.614   3.286   0.006   4.906
  311        1.614   3.280   0.006   4.900
  312        1.614   3.284   0.006   4.904
  313        1.614   3.283   0.006   4.902
  314        1.614   3.280   0.006   4.900
  315        1.614   3.285   0.006   4.905
  316        1.614   3.286   0.006   4.906
  317        1.614   3.280   0.006   4.900
  318        1.614   3.281   0.006   4.901
  319        1.614   3.285   0.006   4.905
--------------------------------------------------
tot        522.016 955.938 631.6812109.634


 total amount of memory used by VASP MPI-rank0    85375. kBytes
=======================================================================

   base      :      30000. kBytes
   nonlr-proj:       6239. kBytes
   fftplans  :      18627. kBytes
   grid      :      22209. kBytes
   one-center:         77. kBytes
   wavefun   :       8223. kBytes

  
  
 General timing and accounting informations for this job:
 ========================================================
  
                  Total CPU time used (sec):     4650.753
                            User time (sec):     4629.654
                          System time (sec):       21.099
                         Elapsed time (sec):     4654.118
  
                   Maximum memory used (kb):      169140.
                   Average memory used (kb):           0.
  
                          Minor page faults:        41475
                          Major page faults:            1
                 Voluntary context switches:         5655
