  10  10   1   0
  0.4042718E+02  0.8285454E-09  0.8285454E-09  0.8453244E-09  0.5000000E-15
   1.0000000000000000E-004
  CAR 
 CsPbBr3 cubic bulk                      
      8.51941980    -22.28515866  301      0.63858181      1.00000000
    -22.285  0.0000E+00  0.0000E+00
    -22.182  0.0000E+00  0.0000E+00
    -22.080  0.0000E+00  0.0000E+00
    -21.977  0.0000E+00  0.0000E+00
    -21.874  0.0000E+00  0.0000E+00
    -21.772  0.0000E+00  0.0000E+00
    -21.669  0.0000E+00  0.0000E+00
    -21.566  0.0000E+00  0.0000E+00
    -21.464  0.0000E+00  0.0000E+00
    -21.361  0.0000E+00  0.0000E+00
    -21.258  0.0000E+00  0.0000E+00
    -21.156  0.0000E+00  0.0000E+00
    -21.053  0.0000E+00  0.0000E+00
    -20.950  0.0000E+00  0.0000E+00
    -20.848  0.3896E+02  0.4000E+01
    -20.745  0.0000E+00  0.4000E+01
    -20.642  0.0000E+00  0.4000E+01
    -20.540  0.0000E+00  0.4000E+01
    -20.437  0.0000E+00  0.4000E+01
    -20.334  0.0000E+00  0.4000E+01
    -20.232  0.0000E+00  0.4000E+01
    -20.129  0.0000E+00  0.4000E+01
    -20.026  0.0000E+00  0.4000E+01
    -19.923  0.0000E+00  0.4000E+01
    -19.821  0.0000E+00  0.4000E+01
    -19.718  0.0000E+00  0.4000E+01
    -19.615  0.0000E+00  0.4000E+01
    -19.513  0.0000E+00  0.4000E+01
    -19.410  0.0000E+00  0.4000E+01
    -19.307  0.0000E+00  0.4000E+01
    -19.205  0.0000E+00  0.4000E+01
    -19.102  0.0000E+00  0.4000E+01
    -18.999  0.0000E+00  0.4000E+01
    -18.897  0.0000E+00  0.4000E+01
    -18.794  0.0000E+00  0.4000E+01
    -18.691  0.0000E+00  0.4000E+01
    -18.589  0.0000E+00  0.4000E+01
    -18.486  0.0000E+00  0.4000E+01
    -18.383  0.0000E+00  0.4000E+01
    -18.281  0.0000E+00  0.4000E+01
    -18.178  0.0000E+00  0.4000E+01
    -18.075  0.0000E+00  0.4000E+01
    -17.973  0.0000E+00  0.4000E+01
    -17.870  0.0000E+00  0.4000E+01
    -17.767  0.0000E+00  0.4000E+01
    -17.664  0.0000E+00  0.4000E+01
    -17.562  0.0000E+00  0.4000E+01
    -17.459  0.0000E+00  0.4000E+01
    -17.356  0.0000E+00  0.4000E+01
    -17.254  0.0000E+00  0.4000E+01
    -17.151  0.0000E+00  0.4000E+01
    -17.048  0.0000E+00  0.4000E+01
    -16.946  0.0000E+00  0.4000E+01
    -16.843  0.0000E+00  0.4000E+01
    -16.740  0.0000E+00  0.4000E+01
    -16.638  0.0000E+00  0.4000E+01
    -16.535  0.0000E+00  0.4000E+01
    -16.432  0.3049E+01  0.4313E+01
    -16.330  0.5268E+02  0.1197E+02
    -16.227  0.1169E+03  0.2400E+02
    -16.124  0.0000E+00  0.2400E+02
    -16.022  0.0000E+00  0.2400E+02
    -15.919  0.0000E+00  0.2400E+02
    -15.816  0.0000E+00  0.2400E+02
    -15.714  0.0000E+00  0.2400E+02
    -15.611  0.0000E+00  0.2400E+02
    -15.508  0.0000E+00  0.2400E+02
    -15.405  0.0000E+00  0.2400E+02
    -15.303  0.0000E+00  0.2400E+02
    -15.200  0.0000E+00  0.2400E+02
    -15.097  0.0000E+00  0.2400E+02
    -14.995  0.0000E+00  0.2400E+02
    -14.892  0.0000E+00  0.2400E+02
    -14.789  0.0000E+00  0.2400E+02
    -14.687  0.0000E+00  0.2400E+02
    -14.584  0.0000E+00  0.2400E+02
    -14.481  0.0000E+00  0.2400E+02
    -14.379  0.5724E-03  0.2400E+02
    -14.276  0.3812E+01  0.2445E+02
    -14.173  0.7750E+01  0.2552E+02
    -14.071  0.1500E+02  0.2760E+02
    -13.968  0.2390E+02  0.3018E+02
    -13.865  0.1436E+02  0.3259E+02
    -13.763  0.2298E+02  0.3525E+02
    -13.660  0.6492E+01  0.3600E+02
    -13.557  0.0000E+00  0.3600E+02
    -13.455  0.0000E+00  0.3600E+02
    -13.352  0.0000E+00  0.3600E+02
    -13.249  0.0000E+00  0.3600E+02
    -13.146  0.0000E+00  0.3600E+02
    -13.044  0.0000E+00  0.3600E+02
    -12.941  0.0000E+00  0.3600E+02
    -12.838  0.0000E+00  0.3600E+02
    -12.736  0.0000E+00  0.3600E+02
    -12.633  0.0000E+00  0.3600E+02
    -12.530  0.0000E+00  0.3600E+02
    -12.428  0.0000E+00  0.3600E+02
    -12.325  0.0000E+00  0.3600E+02
    -12.222  0.0000E+00  0.3600E+02
    -12.120  0.0000E+00  0.3600E+02
    -12.017  0.0000E+00  0.3600E+02
    -11.914  0.0000E+00  0.3600E+02
    -11.812  0.0000E+00  0.3600E+02
    -11.709  0.0000E+00  0.3600E+02
    -11.606  0.0000E+00  0.3600E+02
    -11.504  0.0000E+00  0.3600E+02
    -11.401  0.0000E+00  0.3600E+02
    -11.298  0.0000E+00  0.3600E+02
    -11.196  0.0000E+00  0.3600E+02
    -11.093  0.0000E+00  0.3600E+02
    -10.990  0.0000E+00  0.3600E+02
    -10.887  0.0000E+00  0.3600E+02
    -10.785  0.0000E+00  0.3600E+02
    -10.682  0.0000E+00  0.3600E+02
    -10.579  0.0000E+00  0.3600E+02
    -10.477  0.0000E+00  0.3600E+02
    -10.374  0.0000E+00  0.3600E+02
    -10.271  0.0000E+00  0.3600E+02
    -10.169  0.0000E+00  0.3600E+02
    -10.066  0.0000E+00  0.3600E+02
     -9.963  0.0000E+00  0.3600E+02
     -9.861  0.0000E+00  0.3600E+02
     -9.758  0.0000E+00  0.3600E+02
     -9.655  0.0000E+00  0.3600E+02
     -9.553  0.0000E+00  0.3600E+02
     -9.450  0.0000E+00  0.3600E+02
     -9.347  0.0000E+00  0.3600E+02
     -9.245  0.0000E+00  0.3600E+02
     -9.142  0.0000E+00  0.3600E+02
     -9.039  0.0000E+00  0.3600E+02
     -8.937  0.0000E+00  0.3600E+02
     -8.834  0.0000E+00  0.3600E+02
     -8.731  0.0000E+00  0.3600E+02
     -8.628  0.0000E+00  0.3600E+02
     -8.526  0.0000E+00  0.3600E+02
     -8.423  0.0000E+00  0.3600E+02
     -8.320  0.0000E+00  0.3600E+02
     -8.218  0.1087E-05  0.3600E+02
     -8.115  0.5410E+00  0.3606E+02
     -8.012  0.5938E-02  0.3606E+02
     -7.910  0.1012E-01  0.3617E+02
     -7.807  0.5410E+01  0.3683E+02
     -7.704  0.2858E-01  0.3684E+02
     -7.602  0.2166E+01  0.3717E+02
     -7.499  0.2570E+01  0.3754E+02
     -7.396  0.8657E+01  0.3850E+02
     -7.294  0.1465E+02  0.4000E+02
     -7.191  0.8224E+02  0.5083E+02
     -7.088  0.3246E+01  0.5117E+02
     -6.986  0.2393E+01  0.5141E+02
     -6.883  0.2164E+01  0.5183E+02
     -6.780  0.1082E+01  0.5194E+02
     -6.678  0.0000E+00  0.5194E+02
     -6.575  0.0000E+00  0.5194E+02
     -6.472  0.4956E+00  0.5200E+02
     -6.369  0.0000E+00  0.5200E+02
     -6.267  0.0000E+00  0.5200E+02
     -6.164  0.0000E+00  0.5200E+02
     -6.061  0.0000E+00  0.5200E+02
     -5.959  0.0000E+00  0.5200E+02
     -5.856  0.0000E+00  0.5200E+02
     -5.753  0.0000E+00  0.5200E+02
     -5.651  0.0000E+00  0.5200E+02
     -5.548  0.0000E+00  0.5200E+02
     -5.445  0.0000E+00  0.5200E+02
     -5.343  0.0000E+00  0.5200E+02
     -5.240  0.0000E+00  0.5200E+02
     -5.137  0.0000E+00  0.5200E+02
     -5.035  0.0000E+00  0.5200E+02
     -4.932  0.0000E+00  0.5200E+02
     -4.829  0.0000E+00  0.5200E+02
     -4.727  0.0000E+00  0.5200E+02
     -4.624  0.0000E+00  0.5200E+02
     -4.521  0.0000E+00  0.5200E+02
     -4.419  0.0000E+00  0.5200E+02
     -4.316  0.0000E+00  0.5200E+02
     -4.213  0.0000E+00  0.5200E+02
     -4.110  0.0000E+00  0.5200E+02
     -4.008  0.0000E+00  0.5200E+02
     -3.905  0.0000E+00  0.5200E+02
     -3.802  0.0000E+00  0.5200E+02
     -3.700  0.0000E+00  0.5200E+02
     -3.597  0.0000E+00  0.5200E+02
     -3.494  0.0000E+00  0.5200E+02
     -3.392  0.5346E+00  0.5205E+02
     -3.289  0.1084E+01  0.5217E+02
     -3.186  0.4624E+01  0.5270E+02
     -3.084  0.1202E+02  0.5418E+02
     -2.981  0.6926E+01  0.5521E+02
     -2.878  0.6493E+01  0.5606E+02
     -2.776  0.2223E-13  0.5606E+02
     -2.673  0.3852E+01  0.5645E+02
     -2.570  0.7828E+01  0.5730E+02
     -2.468  0.6991E+01  0.5805E+02
     -2.365  0.4234E+01  0.5849E+02
     -2.262  0.5359E+01  0.5905E+02
     -2.160  0.2887E+01  0.5941E+02
     -2.057  0.1129E+02  0.6110E+02
     -1.954  0.1587E+02  0.6302E+02
     -1.851  0.4728E+01  0.6365E+02
     -1.749  0.1174E+02  0.6487E+02
     -1.646  0.1536E+02  0.6669E+02
     -1.543  0.7319E+01  0.6764E+02
     -1.441  0.1250E+02  0.6956E+02
     -1.338  0.2910E+02  0.7327E+02
     -1.235  0.2469E+02  0.7681E+02
     -1.133  0.2681E+02  0.8048E+02
     -1.030  0.1885E+02  0.8282E+02
     -0.927  0.6680E+01  0.8385E+02
     -0.825  0.7590E+01  0.8483E+02
     -0.722  0.2164E+01  0.8528E+02
     -0.619  0.6492E+01  0.8594E+02
     -0.517  0.7214E+01  0.8669E+02
     -0.414  0.2164E+01  0.8694E+02
     -0.311  0.3244E+01  0.8728E+02
     -0.209  0.2164E+01  0.8750E+02
     -0.106  0.1082E+01  0.8761E+02
     -0.003  0.3244E+01  0.8794E+02
      0.100  0.0000E+00  0.8794E+02
      0.202  0.0000E+00  0.8794E+02
      0.305  0.0000E+00  0.8794E+02
      0.408  0.0000E+00  0.8794E+02
      0.510  0.3735E-04  0.8794E+02
      0.613  0.5410E+00  0.8800E+02
      0.716  0.0000E+00  0.8800E+02
      0.818  0.0000E+00  0.8800E+02
      0.921  0.0000E+00  0.8800E+02
      1.024  0.0000E+00  0.8800E+02
      1.126  0.0000E+00  0.8800E+02
      1.229  0.0000E+00  0.8800E+02
      1.332  0.0000E+00  0.8800E+02
      1.434  0.0000E+00  0.8800E+02
      1.537  0.0000E+00  0.8800E+02
      1.640  0.0000E+00  0.8800E+02
      1.742  0.0000E+00  0.8800E+02
      1.845  0.0000E+00  0.8800E+02
      1.948  0.0000E+00  0.8800E+02
      2.050  0.0000E+00  0.8800E+02
      2.153  0.0000E+00  0.8800E+02
      2.256  0.0000E+00  0.8800E+02
      2.359  0.0000E+00  0.8800E+02
      2.461  0.0000E+00  0.8800E+02
      2.564  0.0000E+00  0.8800E+02
      2.667  0.0000E+00  0.8800E+02
      2.769  0.2844E+00  0.8803E+02
      2.872  0.4658E+00  0.8816E+02
      2.975  0.0000E+00  0.8817E+02
      3.077  0.1141E+01  0.8828E+02
      3.180  0.2164E+01  0.8883E+02
      3.283  0.8358E-01  0.8884E+02
      3.385  0.6097E+01  0.8957E+02
      3.488  0.4329E+01  0.9039E+02
      3.591  0.3246E+01  0.9083E+02
      3.693  0.2690E+01  0.9111E+02
      3.796  0.2810E+01  0.9146E+02
      3.899  0.4328E+01  0.9217E+02
      4.001  0.1453E-05  0.9217E+02
      4.104  0.3229E+01  0.9250E+02
      4.207  0.0000E+00  0.9250E+02
      4.309  0.1715E+01  0.9268E+02
      4.412  0.2705E+01  0.9322E+02
      4.515  0.2193E+01  0.9345E+02
      4.618  0.2828E+01  0.9379E+02
      4.720  0.6720E+01  0.9452E+02
      4.823  0.1055E+01  0.9466E+02
      4.926  0.2616E+01  0.9494E+02
      5.028  0.3246E+01  0.9556E+02
      5.131  0.5409E+01  0.9611E+02
      5.234  0.0000E+00  0.9611E+02
      5.336  0.4748E-06  0.9611E+02
      5.439  0.3471E+01  0.9647E+02
      5.542  0.5485E+01  0.9712E+02
      5.644  0.4163E+00  0.9749E+02
      5.747  0.5796E+01  0.9815E+02
      5.850  0.3659E+01  0.9865E+02
      5.952  0.1023E+02  0.1001E+03
      6.055  0.2169E+01  0.1003E+03
      6.158  0.5378E+01  0.1012E+03
      6.260  0.8678E+01  0.1021E+03
      6.363  0.6881E+01  0.1030E+03
      6.466  0.7102E+01  0.1039E+03
      6.568  0.6330E+01  0.1049E+03
      6.671  0.1097E+02  0.1061E+03
      6.774  0.1803E+02  0.1084E+03
      6.877  0.7043E+01  0.1096E+03
      6.979  0.8700E+01  0.1109E+03
      7.082  0.3257E+01  0.1114E+03
      7.185  0.3246E+01  0.1120E+03
      7.287  0.0000E+00  0.1120E+03
      7.390  0.0000E+00  0.1120E+03
      7.493  0.0000E+00  0.1120E+03
      7.595  0.0000E+00  0.1120E+03
      7.698  0.0000E+00  0.1120E+03
      7.801  0.0000E+00  0.1120E+03
      7.903  0.0000E+00  0.1120E+03
      8.006  0.0000E+00  0.1120E+03
      8.109  0.0000E+00  0.1120E+03
      8.211  0.0000E+00  0.1120E+03
      8.314  0.0000E+00  0.1120E+03
      8.417  0.0000E+00  0.1120E+03
      8.519  0.0000E+00  0.1120E+03
      8.51941980    -22.28515866  301      0.63858181      1.00000000
    -22.285  0.0000E+00  0.0000E+00  0.0000E+00
    -22.182  0.0000E+00  0.0000E+00  0.0000E+00
    -22.080  0.0000E+00  0.0000E+00  0.0000E+00
    -21.977  0.0000E+00  0.0000E+00  0.0000E+00
    -21.874  0.0000E+00  0.0000E+00  0.0000E+00
    -21.772  0.0000E+00  0.0000E+00  0.0000E+00
    -21.669  0.0000E+00  0.0000E+00  0.0000E+00
    -21.566  0.0000E+00  0.0000E+00  0.0000E+00
    -21.464  0.0000E+00  0.0000E+00  0.0000E+00
    -21.361  0.0000E+00  0.0000E+00  0.0000E+00
    -21.258  0.0000E+00  0.0000E+00  0.0000E+00
    -21.156  0.0000E+00  0.0000E+00  0.0000E+00
    -21.053  0.0000E+00  0.0000E+00  0.0000E+00
    -20.950  0.0000E+00  0.0000E+00  0.0000E+00
    -20.848  0.1729E+02  0.1848E-04  0.3797E-05
    -20.745  0.0000E+00  0.0000E+00  0.0000E+00
    -20.642  0.0000E+00  0.0000E+00  0.0000E+00
    -20.540  0.0000E+00  0.0000E+00  0.0000E+00
    -20.437  0.0000E+00  0.0000E+00  0.0000E+00
    -20.334  0.0000E+00  0.0000E+00  0.0000E+00
    -20.232  0.0000E+00  0.0000E+00  0.0000E+00
    -20.129  0.0000E+00  0.0000E+00  0.0000E+00
    -20.026  0.0000E+00  0.0000E+00  0.0000E+00
    -19.923  0.0000E+00  0.0000E+00  0.0000E+00
    -19.821  0.0000E+00  0.0000E+00  0.0000E+00
    -19.718  0.0000E+00  0.0000E+00  0.0000E+00
    -19.615  0.0000E+00  0.0000E+00  0.0000E+00
    -19.513  0.0000E+00  0.0000E+00  0.0000E+00
    -19.410  0.0000E+00  0.0000E+00  0.0000E+00
    -19.307  0.0000E+00  0.0000E+00  0.0000E+00
    -19.205  0.0000E+00  0.0000E+00  0.0000E+00
    -19.102  0.0000E+00  0.0000E+00  0.0000E+00
    -18.999  0.0000E+00  0.0000E+00  0.0000E+00
    -18.897  0.0000E+00  0.0000E+00  0.0000E+00
    -18.794  0.0000E+00  0.0000E+00  0.0000E+00
    -18.691  0.0000E+00  0.0000E+00  0.0000E+00
    -18.589  0.0000E+00  0.0000E+00  0.0000E+00
    -18.486  0.0000E+00  0.0000E+00  0.0000E+00
    -18.383  0.0000E+00  0.0000E+00  0.0000E+00
    -18.281  0.0000E+00  0.0000E+00  0.0000E+00
    -18.178  0.0000E+00  0.0000E+00  0.0000E+00
    -18.075  0.0000E+00  0.0000E+00  0.0000E+00
    -17.973  0.0000E+00  0.0000E+00  0.0000E+00
    -17.870  0.0000E+00  0.0000E+00  0.0000E+00
    -17.767  0.0000E+00  0.0000E+00  0.0000E+00
    -17.664  0.0000E+00  0.0000E+00  0.0000E+00
    -17.562  0.0000E+00  0.0000E+00  0.0000E+00
    -17.459  0.0000E+00  0.0000E+00  0.0000E+00
    -17.356  0.0000E+00  0.0000E+00  0.0000E+00
    -17.254  0.0000E+00  0.0000E+00  0.0000E+00
    -17.151  0.0000E+00  0.0000E+00  0.0000E+00
    -17.048  0.0000E+00  0.0000E+00  0.0000E+00
    -16.946  0.0000E+00  0.0000E+00  0.0000E+00
    -16.843  0.0000E+00  0.0000E+00  0.0000E+00
    -16.740  0.0000E+00  0.0000E+00  0.0000E+00
    -16.638  0.0000E+00  0.0000E+00  0.0000E+00
    -16.535  0.0000E+00  0.0000E+00  0.0000E+00
    -16.432  0.1204E-04  0.5758E-05  0.1130E-05
    -16.330  0.4191E-04  0.7612E-04  0.9880E-05
    -16.227  0.3240E-04  0.1957E-04  0.2172E-05
    -16.124  0.0000E+00  0.0000E+00  0.0000E+00
    -16.022  0.0000E+00  0.0000E+00  0.0000E+00
    -15.919  0.0000E+00  0.0000E+00  0.0000E+00
    -15.816  0.0000E+00  0.0000E+00  0.0000E+00
    -15.714  0.0000E+00  0.0000E+00  0.0000E+00
    -15.611  0.0000E+00  0.0000E+00  0.0000E+00
    -15.508  0.0000E+00  0.0000E+00  0.0000E+00
    -15.405  0.0000E+00  0.0000E+00  0.0000E+00
    -15.303  0.0000E+00  0.0000E+00  0.0000E+00
    -15.200  0.0000E+00  0.0000E+00  0.0000E+00
    -15.097  0.0000E+00  0.0000E+00  0.0000E+00
    -14.995  0.0000E+00  0.0000E+00  0.0000E+00
    -14.892  0.0000E+00  0.0000E+00  0.0000E+00
    -14.789  0.0000E+00  0.0000E+00  0.0000E+00
    -14.687  0.0000E+00  0.0000E+00  0.0000E+00
    -14.584  0.0000E+00  0.0000E+00  0.0000E+00
    -14.481  0.0000E+00  0.0000E+00  0.0000E+00
    -14.379  0.3900E-06  0.4901E-08  0.5203E-09
    -14.276  0.1614E-02  0.6062E-03  0.1786E-04
    -14.173  0.1444E-02  0.2382E-02  0.6734E-04
    -14.071  0.6683E-03  0.4450E-02  0.2417E-03
    -13.968  0.1775E-02  0.5020E-02  0.3832E-03
    -13.865  0.4607E-03  0.2694E-02  0.2706E-03
    -13.763  0.1249E-02  0.2925E-02  0.3935E-03
    -13.660  0.5535E-03  0.7299E-03  0.8938E-04
    -13.557  0.0000E+00  0.0000E+00  0.0000E+00
    -13.455  0.0000E+00  0.0000E+00  0.0000E+00
    -13.352  0.0000E+00  0.0000E+00  0.0000E+00
    -13.249  0.0000E+00  0.0000E+00  0.0000E+00
    -13.146  0.0000E+00  0.0000E+00  0.0000E+00
    -13.044  0.0000E+00  0.0000E+00  0.0000E+00
    -12.941  0.0000E+00  0.0000E+00  0.0000E+00
    -12.838  0.0000E+00  0.0000E+00  0.0000E+00
    -12.736  0.0000E+00  0.0000E+00  0.0000E+00
    -12.633  0.0000E+00  0.0000E+00  0.0000E+00
    -12.530  0.0000E+00  0.0000E+00  0.0000E+00
    -12.428  0.0000E+00  0.0000E+00  0.0000E+00
    -12.325  0.0000E+00  0.0000E+00  0.0000E+00
    -12.222  0.0000E+00  0.0000E+00  0.0000E+00
    -12.120  0.0000E+00  0.0000E+00  0.0000E+00
    -12.017  0.0000E+00  0.0000E+00  0.0000E+00
    -11.914  0.0000E+00  0.0000E+00  0.0000E+00
    -11.812  0.0000E+00  0.0000E+00  0.0000E+00
    -11.709  0.0000E+00  0.0000E+00  0.0000E+00
    -11.606  0.0000E+00  0.0000E+00  0.0000E+00
    -11.504  0.0000E+00  0.0000E+00  0.0000E+00
    -11.401  0.0000E+00  0.0000E+00  0.0000E+00
    -11.298  0.0000E+00  0.0000E+00  0.0000E+00
    -11.196  0.0000E+00  0.0000E+00  0.0000E+00
    -11.093  0.0000E+00  0.0000E+00  0.0000E+00
    -10.990  0.0000E+00  0.0000E+00  0.0000E+00
    -10.887  0.0000E+00  0.0000E+00  0.0000E+00
    -10.785  0.0000E+00  0.0000E+00  0.0000E+00
    -10.682  0.0000E+00  0.0000E+00  0.0000E+00
    -10.579  0.0000E+00  0.0000E+00  0.0000E+00
    -10.477  0.0000E+00  0.0000E+00  0.0000E+00
    -10.374  0.0000E+00  0.0000E+00  0.0000E+00
    -10.271  0.0000E+00  0.0000E+00  0.0000E+00
    -10.169  0.0000E+00  0.0000E+00  0.0000E+00
    -10.066  0.0000E+00  0.0000E+00  0.0000E+00
     -9.963  0.0000E+00  0.0000E+00  0.0000E+00
     -9.861  0.0000E+00  0.0000E+00  0.0000E+00
     -9.758  0.0000E+00  0.0000E+00  0.0000E+00
     -9.655  0.0000E+00  0.0000E+00  0.0000E+00
     -9.553  0.0000E+00  0.0000E+00  0.0000E+00
     -9.450  0.0000E+00  0.0000E+00  0.0000E+00
     -9.347  0.0000E+00  0.0000E+00  0.0000E+00
     -9.245  0.0000E+00  0.0000E+00  0.0000E+00
     -9.142  0.0000E+00  0.0000E+00  0.0000E+00
     -9.039  0.0000E+00  0.0000E+00  0.0000E+00
     -8.937  0.0000E+00  0.0000E+00  0.0000E+00
     -8.834  0.0000E+00  0.0000E+00  0.0000E+00
     -8.731  0.0000E+00  0.0000E+00  0.0000E+00
     -8.628  0.0000E+00  0.0000E+00  0.0000E+00
     -8.526  0.0000E+00  0.0000E+00  0.0000E+00
     -8.423  0.0000E+00  0.0000E+00  0.0000E+00
     -8.320  0.0000E+00  0.0000E+00  0.0000E+00
     -8.218  0.3382E-20  0.3713E-10  0.2109E-12
     -8.115  0.1683E-14  0.1848E-04  0.1050E-06
     -8.012  0.3256E-09  0.8517E-05  0.1069E-07
     -7.910  0.1870E-08  0.3208E-04  0.3131E-07
     -7.807  0.1024E-04  0.1298E-01  0.7619E-05
     -7.704  0.1169E-07  0.1675E-03  0.1580E-06
     -7.602  0.2498E-06  0.1694E-01  0.7023E-05
     -7.499  0.6816E-05  0.4302E-01  0.1303E-04
     -7.396  0.2818E-04  0.2510E+00  0.5393E-04
     -7.294  0.1327E-04  0.4526E+01  0.3396E-04
     -7.191  0.2715E-04  0.3099E+02  0.4992E-04
     -7.088  0.8827E-05  0.4044E+00  0.2969E-04
     -6.986  0.4543E-04  0.4708E-02  0.1305E-04
     -6.883  0.3347E-04  0.1137E-01  0.1682E-04
     -6.780  0.2104E-04  0.2819E-02  0.1319E-04
     -6.678  0.0000E+00  0.0000E+00  0.0000E+00
     -6.575  0.0000E+00  0.0000E+00  0.0000E+00
     -6.472  0.1502E-04  0.7440E-04  0.2336E-05
     -6.369  0.0000E+00  0.0000E+00  0.0000E+00
     -6.267  0.0000E+00  0.0000E+00  0.0000E+00
     -6.164  0.0000E+00  0.0000E+00  0.0000E+00
     -6.061  0.0000E+00  0.0000E+00  0.0000E+00
     -5.959  0.0000E+00  0.0000E+00  0.0000E+00
     -5.856  0.0000E+00  0.0000E+00  0.0000E+00
     -5.753  0.0000E+00  0.0000E+00  0.0000E+00
     -5.651  0.0000E+00  0.0000E+00  0.0000E+00
     -5.548  0.0000E+00  0.0000E+00  0.0000E+00
     -5.445  0.0000E+00  0.0000E+00  0.0000E+00
     -5.343  0.0000E+00  0.0000E+00  0.0000E+00
     -5.240  0.0000E+00  0.0000E+00  0.0000E+00
     -5.137  0.0000E+00  0.0000E+00  0.0000E+00
     -5.035  0.0000E+00  0.0000E+00  0.0000E+00
     -4.932  0.0000E+00  0.0000E+00  0.0000E+00
     -4.829  0.0000E+00  0.0000E+00  0.0000E+00
     -4.727  0.0000E+00  0.0000E+00  0.0000E+00
     -4.624  0.0000E+00  0.0000E+00  0.0000E+00
     -4.521  0.0000E+00  0.0000E+00  0.0000E+00
     -4.419  0.0000E+00  0.0000E+00  0.0000E+00
     -4.316  0.0000E+00  0.0000E+00  0.0000E+00
     -4.213  0.0000E+00  0.0000E+00  0.0000E+00
     -4.110  0.0000E+00  0.0000E+00  0.0000E+00
     -4.008  0.0000E+00  0.0000E+00  0.0000E+00
     -3.905  0.0000E+00  0.0000E+00  0.0000E+00
     -3.802  0.0000E+00  0.0000E+00  0.0000E+00
     -3.700  0.0000E+00  0.0000E+00  0.0000E+00
     -3.597  0.0000E+00  0.0000E+00  0.0000E+00
     -3.494  0.0000E+00  0.0000E+00  0.0000E+00
     -3.392  0.8207E-06  0.2601E-02  0.2146E-04
     -3.289  0.5193E-06  0.1737E-02  0.1911E-03
     -3.186  0.1953E-05  0.1001E-01  0.6473E-03
     -3.084  0.8479E-04  0.1287E-01  0.2208E-02
     -2.981  0.1350E-04  0.1537E-01  0.4593E-03
     -2.878  0.1389E-03  0.1232E-01  0.8662E-03
     -2.776  0.9478E-18  0.1474E-16  0.5257E-17
     -2.673  0.1261E-03  0.2105E-02  0.7800E-03
     -2.570  0.9086E-03  0.1709E-01  0.1607E-02
     -2.468  0.2852E-03  0.8808E-02  0.1370E-02
     -2.365  0.7645E-03  0.6961E-02  0.7558E-03
     -2.262  0.1065E-02  0.1966E-01  0.8357E-03
     -2.160  0.1112E-02  0.4441E-02  0.6286E-03
     -2.057  0.1389E-01  0.1960E-01  0.4149E-02
     -1.954  0.2114E-01  0.4599E-01  0.4535E-02
     -1.851  0.5208E-03  0.3846E-01  0.1304E-02
     -1.749  0.1418E-02  0.1013E+00  0.6388E-02
     -1.646  0.2863E-02  0.9465E-01  0.1180E-01
     -1.543  0.5388E-03  0.4419E-01  0.4661E-02
     -1.441  0.2029E-02  0.4621E-01  0.7766E-02
     -1.338  0.7080E-02  0.7133E-01  0.1612E-01
     -1.235  0.5780E-02  0.5871E-01  0.1469E-01
     -1.133  0.2326E-02  0.6166E-01  0.1558E-01
     -1.030  0.7112E-03  0.4512E-01  0.1005E-01
     -0.927  0.1070E-03  0.1191E-01  0.4228E-02
     -0.825  0.9276E-03  0.1409E-01  0.4689E-02
     -0.722  0.6775E-04  0.2094E-02  0.8132E-03
     -0.619  0.2271E-03  0.5988E-02  0.1308E-02
     -0.517  0.3395E-03  0.4686E-02  0.7922E-03
     -0.414  0.1759E-04  0.7268E-03  0.1894E-03
     -0.311  0.1271E-03  0.1219E-02  0.9527E-04
     -0.209  0.3975E-04  0.8825E-03  0.3792E-03
     -0.106  0.4918E-04  0.3115E-03  0.1671E-04
     -0.003  0.1998E-04  0.5270E-03  0.5416E-03
      0.100  0.0000E+00  0.0000E+00  0.0000E+00
      0.202  0.0000E+00  0.0000E+00  0.0000E+00
      0.305  0.0000E+00  0.0000E+00  0.0000E+00
      0.408  0.0000E+00  0.0000E+00  0.0000E+00
      0.510  0.1903E-19  0.1344E-09  0.2291E-11
      0.613  0.2756E-15  0.1946E-05  0.3319E-07
      0.716  0.0000E+00  0.0000E+00  0.0000E+00
      0.818  0.0000E+00  0.0000E+00  0.0000E+00
      0.921  0.0000E+00  0.0000E+00  0.0000E+00
      1.024  0.0000E+00  0.0000E+00  0.0000E+00
      1.126  0.0000E+00  0.0000E+00  0.0000E+00
      1.229  0.0000E+00  0.0000E+00  0.0000E+00
      1.332  0.0000E+00  0.0000E+00  0.0000E+00
      1.434  0.0000E+00  0.0000E+00  0.0000E+00
      1.537  0.0000E+00  0.0000E+00  0.0000E+00
      1.640  0.0000E+00  0.0000E+00  0.0000E+00
      1.742  0.0000E+00  0.0000E+00  0.0000E+00
      1.845  0.0000E+00  0.0000E+00  0.0000E+00
      1.948  0.0000E+00  0.0000E+00  0.0000E+00
      2.050  0.0000E+00  0.0000E+00  0.0000E+00
      2.153  0.0000E+00  0.0000E+00  0.0000E+00
      2.256  0.0000E+00  0.0000E+00  0.0000E+00
      2.359  0.0000E+00  0.0000E+00  0.0000E+00
      2.461  0.0000E+00  0.0000E+00  0.0000E+00
      2.564  0.0000E+00  0.0000E+00  0.0000E+00
      2.667  0.0000E+00  0.0000E+00  0.0000E+00
      2.769  0.6774E-11  0.1506E-06  0.4809E-03
      2.872  0.3034E-04  0.2031E-05  0.7697E-03
      2.975  0.0000E+00  0.0000E+00  0.0000E+00
      3.077  0.4128E-03  0.4030E-04  0.1048E-02
      3.180  0.3121E-03  0.2503E-03  0.2340E-02
      3.283  0.3779E-11  0.1133E-04  0.1613E-03
      3.385  0.5952E-03  0.2171E-02  0.5016E-02
      3.488  0.7925E-03  0.3557E-02  0.2238E-02
      3.591  0.3330E-03  0.1056E-02  0.3645E-02
      3.693  0.1763E-04  0.9896E-03  0.3207E-02
      3.796  0.1370E-03  0.1360E-02  0.9770E-03
      3.899  0.5265E-03  0.1369E-02  0.7170E-02
      4.001  0.2599E-09  0.1250E-08  0.5567E-09
      4.104  0.7135E-03  0.1322E-02  0.4593E-02
      4.207  0.0000E+00  0.0000E+00  0.0000E+00
      4.309  0.1175E-03  0.9678E-03  0.2375E-02
      4.412  0.7072E-04  0.1469E-02  0.3144E-02
      4.515  0.3817E-03  0.2037E-02  0.9318E-03
      4.618  0.1840E-02  0.2545E-02  0.2416E-02
      4.720  0.5733E-02  0.3316E-02  0.1374E-01
      4.823  0.4247E-03  0.1148E-02  0.1965E-02
      4.926  0.1454E-02  0.8014E-03  0.5142E-02
      5.028  0.1156E-02  0.1991E-02  0.8513E-02
      5.131  0.4392E-01  0.1557E-01  0.1171E-01
      5.234  0.0000E+00  0.0000E+00  0.0000E+00
      5.336  0.5318E-19  0.2699E-11  0.8648E-09
      5.439  0.1106E-02  0.1515E-02  0.4691E-02
      5.542  0.4542E-01  0.1297E-01  0.3017E-01
      5.644  0.8803E-06  0.1362E-03  0.1635E-02
      5.747  0.8570E-02  0.5135E-02  0.4603E-01
      5.850  0.2255E-01  0.1385E-01  0.3390E-01
      5.952  0.4509E-01  0.1213E-01  0.9032E-01
      6.055  0.3300E-02  0.2414E-02  0.4404E-01
      6.158  0.1693E-01  0.6083E-02  0.1187E+00
      6.260  0.4987E-01  0.2391E-01  0.1946E+00
      6.363  0.3939E-01  0.2147E-01  0.2677E+00
      6.466  0.4668E-01  0.2675E-01  0.2692E+00
      6.568  0.4280E-01  0.2587E-01  0.2747E+00
      6.671  0.5372E-01  0.3593E-01  0.5913E+00
      6.774  0.2340E-01  0.9561E-01  0.1025E+01
      6.877  0.5962E-02  0.2142E-01  0.4665E+00
      6.979  0.6722E-02  0.5052E-01  0.5484E+00
      7.082  0.1623E-01  0.1777E-01  0.1691E+00
      7.185  0.5378E-02  0.1144E-01  0.2290E+00
      7.287  0.0000E+00  0.0000E+00  0.0000E+00
      7.390  0.0000E+00  0.0000E+00  0.0000E+00
      7.493  0.0000E+00  0.0000E+00  0.0000E+00
      7.595  0.0000E+00  0.0000E+00  0.0000E+00
      7.698  0.0000E+00  0.0000E+00  0.0000E+00
      7.801  0.0000E+00  0.0000E+00  0.0000E+00
      7.903  0.0000E+00  0.0000E+00  0.0000E+00
      8.006  0.0000E+00  0.0000E+00  0.0000E+00
      8.109  0.0000E+00  0.0000E+00  0.0000E+00
      8.211  0.0000E+00  0.0000E+00  0.0000E+00
      8.314  0.0000E+00  0.0000E+00  0.0000E+00
      8.417  0.0000E+00  0.0000E+00  0.0000E+00
      8.519  0.0000E+00  0.0000E+00  0.0000E+00
      8.51941980    -22.28515866  301      0.63858181      1.00000000
    -22.285  0.0000E+00  0.0000E+00  0.0000E+00
    -22.182  0.0000E+00  0.0000E+00  0.0000E+00
    -22.080  0.0000E+00  0.0000E+00  0.0000E+00
    -21.977  0.0000E+00  0.0000E+00  0.0000E+00
    -21.874  0.0000E+00  0.0000E+00  0.0000E+00
    -21.772  0.0000E+00  0.0000E+00  0.0000E+00
    -21.669  0.0000E+00  0.0000E+00  0.0000E+00
    -21.566  0.0000E+00  0.0000E+00  0.0000E+00
    -21.464  0.0000E+00  0.0000E+00  0.0000E+00
    -21.361  0.0000E+00  0.0000E+00  0.0000E+00
    -21.258  0.0000E+00  0.0000E+00  0.0000E+00
    -21.156  0.0000E+00  0.0000E+00  0.0000E+00
    -21.053  0.0000E+00  0.0000E+00  0.0000E+00
    -20.950  0.0000E+00  0.0000E+00  0.0000E+00
    -20.848  0.1729E+02  0.1848E-04  0.3797E-05
    -20.745  0.0000E+00  0.0000E+00  0.0000E+00
    -20.642  0.0000E+00  0.0000E+00  0.0000E+00
    -20.540  0.0000E+00  0.0000E+00  0.0000E+00
    -20.437  0.0000E+00  0.0000E+00  0.0000E+00
    -20.334  0.0000E+00  0.0000E+00  0.0000E+00
    -20.232  0.0000E+00  0.0000E+00  0.0000E+00
    -20.129  0.0000E+00  0.0000E+00  0.0000E+00
    -20.026  0.0000E+00  0.0000E+00  0.0000E+00
    -19.923  0.0000E+00  0.0000E+00  0.0000E+00
    -19.821  0.0000E+00  0.0000E+00  0.0000E+00
    -19.718  0.0000E+00  0.0000E+00  0.0000E+00
    -19.615  0.0000E+00  0.0000E+00  0.0000E+00
    -19.513  0.0000E+00  0.0000E+00  0.0000E+00
    -19.410  0.0000E+00  0.0000E+00  0.0000E+00
    -19.307  0.0000E+00  0.0000E+00  0.0000E+00
    -19.205  0.0000E+00  0.0000E+00  0.0000E+00
    -19.102  0.0000E+00  0.0000E+00  0.0000E+00
    -18.999  0.0000E+00  0.0000E+00  0.0000E+00
    -18.897  0.0000E+00  0.0000E+00  0.0000E+00
    -18.794  0.0000E+00  0.0000E+00  0.0000E+00
    -18.691  0.0000E+00  0.0000E+00  0.0000E+00
    -18.589  0.0000E+00  0.0000E+00  0.0000E+00
    -18.486  0.0000E+00  0.0000E+00  0.0000E+00
    -18.383  0.0000E+00  0.0000E+00  0.0000E+00
    -18.281  0.0000E+00  0.0000E+00  0.0000E+00
    -18.178  0.0000E+00  0.0000E+00  0.0000E+00
    -18.075  0.0000E+00  0.0000E+00  0.0000E+00
    -17.973  0.0000E+00  0.0000E+00  0.0000E+00
    -17.870  0.0000E+00  0.0000E+00  0.0000E+00
    -17.767  0.0000E+00  0.0000E+00  0.0000E+00
    -17.664  0.0000E+00  0.0000E+00  0.0000E+00
    -17.562  0.0000E+00  0.0000E+00  0.0000E+00
    -17.459  0.0000E+00  0.0000E+00  0.0000E+00
    -17.356  0.0000E+00  0.0000E+00  0.0000E+00
    -17.254  0.0000E+00  0.0000E+00  0.0000E+00
    -17.151  0.0000E+00  0.0000E+00  0.0000E+00
    -17.048  0.0000E+00  0.0000E+00  0.0000E+00
    -16.946  0.0000E+00  0.0000E+00  0.0000E+00
    -16.843  0.0000E+00  0.0000E+00  0.0000E+00
    -16.740  0.0000E+00  0.0000E+00  0.0000E+00
    -16.638  0.0000E+00  0.0000E+00  0.0000E+00
    -16.535  0.0000E+00  0.0000E+00  0.0000E+00
    -16.432  0.1204E-04  0.5758E-05  0.1130E-05
    -16.330  0.4191E-04  0.7612E-04  0.9880E-05
    -16.227  0.3240E-04  0.1957E-04  0.2172E-05
    -16.124  0.0000E+00  0.0000E+00  0.0000E+00
    -16.022  0.0000E+00  0.0000E+00  0.0000E+00
    -15.919  0.0000E+00  0.0000E+00  0.0000E+00
    -15.816  0.0000E+00  0.0000E+00  0.0000E+00
    -15.714  0.0000E+00  0.0000E+00  0.0000E+00
    -15.611  0.0000E+00  0.0000E+00  0.0000E+00
    -15.508  0.0000E+00  0.0000E+00  0.0000E+00
    -15.405  0.0000E+00  0.0000E+00  0.0000E+00
    -15.303  0.0000E+00  0.0000E+00  0.0000E+00
    -15.200  0.0000E+00  0.0000E+00  0.0000E+00
    -15.097  0.0000E+00  0.0000E+00  0.0000E+00
    -14.995  0.0000E+00  0.0000E+00  0.0000E+00
    -14.892  0.0000E+00  0.0000E+00  0.0000E+00
    -14.789  0.0000E+00  0.0000E+00  0.0000E+00
    -14.687  0.0000E+00  0.0000E+00  0.0000E+00
    -14.584  0.0000E+00  0.0000E+00  0.0000E+00
    -14.481  0.0000E+00  0.0000E+00  0.0000E+00
    -14.379  0.3900E-06  0.4901E-08  0.5203E-09
    -14.276  0.1614E-02  0.6062E-03  0.1786E-04
    -14.173  0.1444E-02  0.2382E-02  0.6734E-04
    -14.071  0.6683E-03  0.4450E-02  0.2417E-03
    -13.968  0.1775E-02  0.5020E-02  0.3832E-03
    -13.865  0.4607E-03  0.2694E-02  0.2706E-03
    -13.763  0.1249E-02  0.2925E-02  0.3935E-03
    -13.660  0.5535E-03  0.7299E-03  0.8938E-04
    -13.557  0.0000E+00  0.0000E+00  0.0000E+00
    -13.455  0.0000E+00  0.0000E+00  0.0000E+00
    -13.352  0.0000E+00  0.0000E+00  0.0000E+00
    -13.249  0.0000E+00  0.0000E+00  0.0000E+00
    -13.146  0.0000E+00  0.0000E+00  0.0000E+00