PROCAR new format
# of k-points:   14         # of bands:   56         # of ions:   10

 k-point     1 :    0.00000000 0.00000000 0.00000000     weight = 0.02777778

band     1 # energy  -20.88495054 # occ.  2.00000000

ion      s      p      d    tot
    1  0.444  0.000  0.000  0.444
    2  0.444  0.000  0.000  0.444
    3  0.000  0.000  0.000  0.000
    4  0.000  0.000  0.000  0.000
    5  0.000  0.000  0.000  0.000
    6  0.000  0.000  0.000  0.000
    7  0.000  0.000  0.000  0.000
    8  0.000  0.000  0.000  0.000
    9  0.000  0.000  0.000  0.000
   10  0.000  0.000  0.000  0.000
tot    0.887  0.000  0.000  0.887

band     2 # energy  -20.88078140 # occ.  2.00000000

ion      s      p      d    tot
    1  0.444  0.000  0.000  0.444
    2  0.444  0.000  0.000  0.444
    3  0.000  0.000  0.000  0.000
    4  0.000  0.000  0.000  0.000
    5  0.000  0.000  0.000  0.000
    6  0.000  0.000  0.000  0.000
    7  0.000  0.000  0.000  0.000
    8  0.000  0.000  0.000  0.000
    9  0.000  0.000  0.000  0.000
   10  0.000  0.000  0.000  0.000
tot    0.888  0.000  0.000  0.888

band     3 # energy  -16.43531464 # occ.  2.00000000

ion      s      p      d    tot
    1  0.000  0.000  0.000  0.000
    2  0.000  0.000  0.000  0.000
    3  0.000  0.000  0.462  0.462
    4  0.000  0.000  0.459  0.459
    5  0.010  0.000  0.000  0.010
    6  0.010  0.000  0.000  0.010
    7  0.010  0.000  0.000  0.010
    8  0.010  0.000  0.000  0.010
    9  0.000  0.000  0.000  0.000
   10  0.000  0.000  0.000  0.000
tot    0.039  0.000  0.921  0.960

band     4 # energy  -16.43185094 # occ.  2.00000000

ion      s      p      d    tot
    1  0.000  0.000  0.000  0.000
    2  0.000  0.000  0.000  0.000
    3  0.000  0.000  0.459  0.459
    4  0.000  0.000  0.462  0.462
    5  0.003  0.000  0.000  0.003
    6  0.003  0.000  0.000  0.003
    7  0.003  0.000  0.000  0.003
    8  0.003  0.000  0.000  0.003
    9  0.013  0.000  0.000  0.013
   10  0.013  0.000  0.000  0.013
tot    0.039  0.000  0.921  0.960

band     5 # energy  -16.34093261 # occ.  2.00000000

ion      s      p      d    tot
    1  0.000  0.000  0.000  0.000
    2  0.000  0.000  0.000  0.000
    3  0.000  0.000  0.484  0.484
    4  0.000  0.000  0.487  0.487
    5  0.000  0.001  0.000  0.001
    6  0.000  0.001  0.000  0.001
    7  0.000  0.001  0.000  0.001
    8  0.000  0.001  0.000  0.001
    9  0.000  0.000  0.000  0.000
   10  0.000  0.000  0.000  0.000
tot    0.000  0.003  0.972  0.974

band     6 # energy  -16.33744888 # occ.  2.00000000

ion      s      p      d    tot
    1  0.000  0.000  0.000  0.000
    2  0.000  0.000  0.000  0.000
    3  0.000  0.000  0.487  0.487
    4  0.000  0.000  0.485  0.485
    5  0.000  0.000  0.000  0.000
    6  0.000  0.000  0.000  0.000
    7  0.000  0.000  0.000  0.000
    8  0.000  0.000  0.000  0.000
    9  0.000  0.001  0.000  0.001
   10  0.000  0.001  0.000  0.001
tot    0.000  0.003  0.972  0.974

band     7 # energy  -16.27242578 # occ.  2.00000000

ion      s      p      d    tot
    1  0.000  0.000  0.000  0.000
    2  0.000  0.000  0.000  0.000
    3  0.000  0.000  0.400  0.400
    4  0.000  0.000  0.578  0.578
    5  0.000  0.000  0.000  0.000
    6  0.000  0.000  0.000  0.000
    7  0.000  0.000  0.000  0.000
    8  0.000  0.000  0.000  0.000
    9  0.000  0.000  0.000  0.000
   10  0.000  0.000  0.000  0.000
tot    0.000  0.000  0.977  0.978

band     8 # energy  -16.27058339 # occ.  2.00000000

ion      s      p      d    tot
    1  0.000  0.000  0.000  0.000
    2  0.000  0.000  0.000  0.000
    3  0.000  0.000  0.578  0.578
    4  0.000  0.000  0.400  0.400
    5  0.000  0.000  0.000  0.000
    6  0.000  0.000  0.000  0.000
    7  0.000  0.000  0.000  0.000
    8  0.000  0.000  0.000  0.000
    9  0.000  0.000  0.000  0.000
   10  0.000  0.000  0.000  0.000
tot    0.000  0.000  0.978  0.978

band     9 # energy  -16.26936820 # occ.  2.00000000

ion      s      p      d    tot
    1  0.000  0.000  0.000  0.000
    2  0.000  0.000  0.000  0.000
    3  0.000  0.000  0.464  0.464
    4  0.000  0.000  0.513  0.513
    5  0.000  0.000  0.000  0.000
    6  0.000  0.000  0.000  0.000
    7  0.000  0.000  0.000  0.000
    8  0.000  0.000  0.000  0.000
    9  0.000  0.000  0.000  0.000
   10  0.000  0.000  0.000  0.000
tot    0.000  0.000  0.977  0.977

band    10 # energy  -16.26829028 # occ.  2.00000000

ion      s      p      d    tot
    1  0.000  0.000  0.000  0.000
    2  0.000  0.000  0.000  0.000
    3  0.000  0.000  0.514  0.514
    4  0.000  0.000  0.464  0.464
    5  0.000  0.000  0.000  0.000
    6  0.000  0.000  0.000  0.000
    7  0.000  0.000  0.000  0.000
    8  0.000  0.000  0.000  0.000
    9  0.000  0.000  0.000  0.000
   10  0.000  0.000  0.000  0.000
tot    0.000  0.000  0.978  0.978

band    11 # energy  -16.26042964 # occ.  2.00000000

ion      s      p      d    tot
    1  0.000  0.000  0.000  0.000
    2  0.000  0.000  0.000  0.000
    3  0.000  0.000  0.572  0.572
    4  0.000  0.000  0.405  0.405
    5  0.000  0.000  0.000  0.000
    6  0.000  0.000  0.000  0.000
    7  0.000  0.000  0.000  0.000
    8  0.000  0.000  0.000  0.000
    9  0.000  0.000  0.000  0.000
   10  0.000  0.000  0.000  0.000
tot    0.000  0.000  0.977  0.978

band    12 # energy  -16.25843661 # occ.  2.00000000

ion      s      p      d    tot
    1  0.000  0.000  0.000  0.000
    2  0.000  0.000  0.000  0.000
    3  0.000  0.000  0.405  0.405
    4  0.000  0.000  0.572  0.572
    5  0.000  0.000  0.000  0.000
    6  0.000  0.000  0.000  0.000
    7  0.000  0.000  0.000  0.000
    8  0.000  0.000  0.000  0.000
    9  0.000  0.000  0.000  0.000
   10  0.000  0.000  0.000  0.000
tot    0.000  0.000  0.978  0.978

band    13 # energy  -14.35691763 # occ.  2.00000000

ion      s      p      d    tot
    1  0.001  0.000  0.000  0.001
    2  0.001  0.000  0.000  0.001
    3  0.016  0.000  0.000  0.016
    4  0.016  0.000  0.000  0.016
    5  0.127  0.000  0.000  0.127
    6  0.127  0.000  0.000  0.127
    7  0.127  0.000  0.000  0.127
    8  0.127  0.000  0.000  0.127
    9  0.115  0.000  0.000  0.115
   10  0.115  0.000  0.000  0.115
tot    0.770  0.000  0.001  0.771

band    14 # energy  -14.04531159 # occ.  2.00000000

ion      s      p      d    tot
    1  0.000  0.000  0.000  0.000
    2  0.000  0.000  0.000  0.000
    3  0.000  0.002  0.000  0.002
    4  0.000  0.002  0.000  0.002
    5  0.198  0.000  0.000  0.198
    6  0.198  0.000  0.000  0.198
    7  0.198  0.000  0.000  0.198
    8  0.198  0.000  0.000  0.198
    9  0.000  0.000  0.000  0.000
   10  0.000  0.000  0.000  0.000
tot    0.792  0.005  0.000  0.797

band    15 # energy  -13.99402565 # occ.  2.00000000

ion      s      p      d    tot
    1  0.000  0.000  0.000  0.000
    2  0.000  0.000  0.000  0.000
    3  0.000  0.002  0.000  0.002
    4  0.000  0.002  0.000  0.002
    5  0.199  0.000  0.000  0.199
    6  0.199  0.000  0.000  0.199
    7  0.199  0.000  0.000  0.199
    8  0.199  0.000  0.000  0.199
    9  0.000  0.000  0.000  0.000
   10  0.000  0.000  0.000  0.000
tot    0.797  0.004  0.000  0.801

band    16 # energy  -13.98912013 # occ.  2.00000000

ion      s      p      d    tot
    1  0.000  0.000  0.000  0.000
    2  0.000  0.000  0.000  0.000
    3  0.000  0.002  0.000  0.002
    4  0.000  0.002  0.000  0.002
    5  0.000  0.000  0.000  0.000
    6  0.000  0.000  0.000  0.000
    7  0.000  0.000  0.000  0.000
    8  0.000  0.000  0.000  0.000
    9  0.397  0.000  0.000  0.397
   10  0.397  0.000  0.000  0.397
tot    0.795  0.004  0.000  0.800

band    17 # energy  -13.73906248 # occ.  2.00000000

ion      s      p      d    tot
    1  0.000  0.000  0.000  0.000
    2  0.000  0.000  0.000  0.000
    3  0.000  0.000  0.029  0.029
    4  0.000  0.000  0.029  0.029
    5  0.193  0.000  0.000  0.193
    6  0.193  0.000  0.000  0.193
    7  0.193  0.000  0.000  0.193
    8  0.193  0.000  0.000  0.193
    9  0.000  0.000  0.000  0.000
   10  0.000  0.000  0.000  0.000
tot    0.771  0.000  0.059  0.830

band    18 # energy  -13.72581835 # occ.  2.00000000

ion      s      p      d    tot
    1  0.000  0.000  0.000  0.000
    2  0.000  0.000  0.000  0.000
    3  0.000  0.000  0.029  0.029
    4  0.000  0.000  0.029  0.029
    5  0.060  0.000  0.000  0.060
    6  0.060  0.000  0.000  0.060
    7  0.060  0.000  0.000  0.060
    8  0.060  0.000  0.000  0.060
    9  0.265  0.000  0.000  0.265
   10  0.265  0.000  0.000  0.265
tot    0.770  0.001  0.058  0.829

band    19 # energy   -8.18513433 # occ.  2.00000000

ion      s      p      d    tot
    1  0.000  0.000  0.000  0.000
    2  0.000  0.000  0.000  0.000
    3  0.284  0.000  0.000  0.284
    4  0.284  0.000  0.000  0.284
    5  0.000  0.017  0.000  0.017
    6  0.000  0.017  0.000  0.017
    7  0.000  0.017  0.000  0.017
    8  0.000  0.017  0.000  0.017
    9  0.000  0.016  0.000  0.016
   10  0.000  0.016  0.000  0.016
tot    0.569  0.100  0.000  0.669

band    20 # energy   -7.33163671 # occ.  2.00000000

ion      s      p      d    tot
    1  0.000  0.379  0.000  0.379
    2  0.000  0.379  0.000  0.379
    3  0.000  0.000  0.000  0.000
    4  0.000  0.000  0.000  0.000
    5  0.000  0.001  0.000  0.001
    6  0.000  0.001  0.000  0.001
    7  0.000  0.001  0.000  0.001
    8  0.000  0.001  0.000  0.001
    9  0.000  0.000  0.000  0.000
   10  0.000  0.000  0.000  0.000
tot    0.000  0.764  0.000  0.764

band    21 # energy   -7.29285069 # occ.  2.00000000

ion      s      p      d    tot
    1  0.000  0.381  0.000  0.381
    2  0.000  0.381  0.000  0.381
    3  0.000  0.000  0.000  0.000
    4  0.000  0.000  0.000  0.000
    5  0.000  0.001  0.000  0.001
    6  0.000  0.001  0.000  0.001
    7  0.000  0.001  0.000  0.001
    8  0.000  0.001  0.000  0.001
    9  0.000  0.001  0.000  0.001
   10  0.000  0.001  0.000  0.001
tot    0.001  0.766  0.000  0.768

band    22 # energy   -7.27826746 # occ.  2.00000000

ion      s      p      d    tot
    1  0.000  0.379  0.000  0.379
    2  0.000  0.379  0.000  0.379
    3  0.000  0.000  0.000  0.000
    4  0.000  0.000  0.000  0.000
    5  0.000  0.001  0.000  0.001
    6  0.000  0.001  0.000  0.001
    7  0.000  0.001  0.000  0.001
    8  0.000  0.001  0.000  0.001
    9  0.001  0.002  0.000  0.002
   10  0.001  0.002  0.000  0.002
tot    0.003  0.764  0.000  0.768

band    23 # energy   -7.27136833 # occ.  2.00000000

ion      s      p      d    tot
    1  0.000  0.384  0.000  0.384
    2  0.000  0.384  0.000  0.384
    3  0.000  0.000  0.000  0.000
    4  0.000  0.000  0.000  0.000
    5  0.000  0.001  0.000  0.001
    6  0.000  0.001  0.000  0.001
    7  0.000  0.001  0.000  0.001
    8  0.000  0.001  0.000  0.001
    9  0.000  0.000  0.000  0.000
   10  0.000  0.000  0.000  0.000
tot    0.000  0.773  0.000  0.773

band    24 # energy   -7.26430348 # occ.  2.00000000

ion      s      p      d    tot
    1  0.000  0.386  0.000  0.386
    2  0.000  0.386  0.000  0.386
    3  0.000  0.000  0.000  0.000
    4  0.000  0.000  0.000  0.000
    5  0.000  0.001  0.000  0.001
    6  0.000  0.001  0.000  0.001
    7  0.000  0.001  0.000  0.001
    8  0.000  0.001  0.000  0.001
    9  0.000  0.000  0.000  0.000
   10  0.000  0.000  0.000  0.000
tot    0.001  0.775  0.000  0.776

band    25 # energy   -7.26371063 # occ.  2.00000000

ion      s      p      d    tot
    1  0.000  0.382  0.000  0.382
    2  0.000  0.382  0.000  0.382
    3  0.000  0.000  0.000  0.000
    4  0.000  0.000  0.000  0.000
    5  0.000  0.001  0.000  0.001
    6  0.000  0.001  0.000  0.001
    7  0.000  0.001  0.000  0.001
    8  0.000  0.001  0.000  0.001
    9  0.000  0.001  0.000  0.002
   10  0.000  0.001  0.000  0.002
tot    0.001  0.770  0.000  0.771

band    26 # energy   -6.48188632 # occ.  2.00000000

ion      s      p      d    tot
    1  0.000  0.000  0.000  0.000
    2  0.000  0.000  0.000  0.000
    3  0.355  0.000  0.000  0.355
    4  0.355  0.000  0.000  0.355
    5  0.012  0.001  0.001  0.014
    6  0.012  0.001  0.001  0.014
    7  0.012  0.001  0.001  0.014
    8  0.012  0.001  0.001  0.014
    9  0.012  0.002  0.001  0.015
   10  0.012  0.002  0.001  0.015
tot    0.782  0.008  0.005  0.795

band    27 # energy   -3.40767118 # occ.  2.00000000

ion      s      p      d    tot
    1  0.000  0.005  0.000  0.005
    2  0.000  0.005  0.000  0.005
    3  0.000  0.047  0.000  0.047
    4  0.000  0.047  0.000  0.047
    5  0.000  0.098  0.000  0.098
    6  0.000  0.098  0.000  0.098
    7  0.000  0.098  0.000  0.098
    8  0.000  0.098  0.000  0.098
    9  0.000  0.014  0.000  0.015
   10  0.000  0.014  0.000  0.015
tot    0.000  0.527  0.000  0.527

band    28 # energy   -3.26938022 # occ.  2.00000000

ion      s      p      d    tot
    1  0.000  0.004  0.000  0.004
    2  0.000  0.004  0.000  0.004
    3  0.000  0.047  0.000  0.047
    4  0.000  0.047  0.000  0.047
    5  0.000  0.016  0.000  0.016
    6  0.000  0.016  0.000  0.016
    7  0.000  0.016  0.000  0.016
    8  0.000  0.016  0.000  0.016
    9  0.000  0.182  0.000  0.182
   10  0.000  0.182  0.000  0.182
tot    0.000  0.527  0.000  0.528

band    29 # energy   -3.21838693 # occ.  2.00000000

ion      s      p      d    tot
    1  0.000  0.005  0.000  0.005
    2  0.000  0.005  0.000  0.005
    3  0.000  0.046  0.000  0.046
    4  0.000  0.046  0.000  0.046
    5  0.000  0.099  0.000  0.099
    6  0.000  0.099  0.000  0.099
    7  0.000  0.099  0.000  0.099
    8  0.000  0.099  0.000  0.099
    9  0.000  0.017  0.000  0.017
   10  0.000  0.017  0.000  0.017
tot    0.000  0.531  0.000  0.531

band    30 # energy   -1.91647550 # occ.  2.00000000

ion      s      p      d    tot
    1  0.000  0.016  0.000  0.017
    2  0.000  0.016  0.000  0.017
    3  0.000  0.000  0.003  0.003
    4  0.000  0.000  0.003  0.003
    5  0.000  0.070  0.000  0.070
    6  0.000  0.070  0.000  0.070
    7  0.000  0.070  0.000  0.070
    8  0.000  0.070  0.000  0.070
    9  0.000  0.115  0.000  0.115
   10  0.000  0.115  0.000  0.115
tot    0.000  0.543  0.006  0.549

band    31 # energy   -1.90877669 # occ.  2.00000000

ion      s      p      d    tot
    1  0.000  0.017  0.000  0.017
    2  0.000  0.017  0.000  0.017
    3  0.000  0.000  0.002  0.002
    4  0.000  0.000  0.002  0.002
    5  0.000  0.128  0.000  0.128
    6  0.000  0.128  0.000  0.128
    7  0.000  0.128  0.000  0.128
    8  0.000  0.128  0.000  0.128
    9  0.000  0.001  0.000  0.001
   10  0.000  0.001  0.000  0.001
tot    0.000  0.548  0.006  0.554

band    32 # energy   -1.89304672 # occ.  2.00000000

ion      s      p      d    tot
    1  0.000  0.015  0.000  0.015
    2  0.000  0.015  0.000  0.015
    3  0.000  0.000  0.002  0.002
    4  0.000  0.000  0.002  0.002
    5  0.000  0.061  0.000  0.061
    6  0.000  0.061  0.000  0.061
    7  0.000  0.061  0.000  0.061
    8  0.000  0.061  0.000  0.061
    9  0.000  0.134  0.000  0.134
   10  0.000  0.134  0.000  0.134
tot    0.000  0.542  0.005  0.547

band    33 # energy   -1.52235124 # occ.  2.00000000

ion      s      p      d    tot
    1  0.001  0.000  0.000  0.002
    2  0.001  0.000  0.000  0.002
    3  0.000  0.004  0.000  0.004
    4  0.000  0.004  0.000  0.004
    5  0.000  0.094  0.000  0.094
    6  0.000  0.094  0.000  0.094
    7  0.000  0.094  0.000  0.094
    8  0.000  0.094  0.000  0.094
    9  0.001  0.095  0.000  0.095
   10  0.001  0.095  0.000  0.095
tot    0.004  0.574  0.000  0.578

band    34 # energy   -1.43949074 # occ.  2.00000000

ion      s      p      d    tot
    1  0.000  0.000  0.000  0.000
    2  0.000  0.000  0.000  0.000
    3  0.000  0.000  0.013  0.013
    4  0.000  0.000  0.013  0.013
    5  0.000  0.154  0.000  0.154
    6  0.000  0.154  0.000  0.154
    7  0.000  0.154  0.000  0.154
    8  0.000  0.154  0.000  0.154
    9  0.000  0.000  0.000  0.000
   10  0.000  0.000  0.000  0.000
tot    0.000  0.617  0.026  0.643

band    35 # energy   -1.43440056 # occ.  2.00000000

ion      s      p      d    tot
    1  0.000  0.000  0.000  0.000
    2  0.000  0.000  0.000  0.000
    3  0.000  0.000  0.013  0.013
    4  0.000  0.000  0.013  0.013
    5  0.000  0.052  0.000  0.052
    6  0.000  0.052  0.000  0.052
    7  0.000  0.052  0.000  0.052
    8  0.000  0.052  0.000  0.052
    9  0.000  0.203  0.000  0.203
   10  0.000  0.203  0.000  0.203
tot    0.000  0.616  0.027  0.642

band    36 # energy   -1.36231621 # occ.  2.00000000

ion      s      p      d    tot
    1  0.000  0.000  0.000  0.000
    2  0.000  0.000  0.000  0.000
    3  0.000  0.006  0.000  0.006
    4  0.000  0.006  0.000  0.006
    5  0.000  0.144  0.000  0.145
    6  0.000  0.144  0.000  0.145
    7  0.000  0.144  0.000  0.145
    8  0.000  0.144  0.000  0.145
    9  0.000  0.000  0.000  0.000
   10  0.000  0.000  0.000  0.000
tot    0.001  0.589  0.001  0.591

band    37 # energy   -1.21508152 # occ.  2.00000000

ion      s      p      d    tot
    1  0.000  0.008  0.000  0.009
    2  0.000  0.008  0.000  0.009
    3  0.000  0.004  0.000  0.004
    4  0.000  0.004  0.000  0.004
    5  0.000  0.064  0.000  0.064
    6  0.000  0.064  0.000  0.064
    7  0.000  0.064  0.000  0.064
    8  0.000  0.064  0.000  0.064
    9  0.000  0.171  0.000  0.171
   10  0.000  0.171  0.000  0.171
tot    0.000  0.621  0.001  0.622

band    38 # energy   -1.20580335 # occ.  2.00000000

ion      s      p      d    tot
    1  0.000  0.000  0.000  0.000
    2  0.000  0.000  0.000  0.000
    3  0.000  0.000  0.000  0.000
    4  0.000  0.000  0.000  0.000
    5  0.000  0.060  0.000  0.060
    6  0.000  0.060  0.000  0.060
    7  0.000  0.060  0.000  0.060
    8  0.000  0.060  0.000  0.060
    9  0.000  0.181  0.000  0.181
   10  0.000  0.181  0.000  0.181
tot    0.000  0.600  0.000  0.601

band    39 # energy   -1.15606385 # occ.  2.00000000

ion      s      p      d    tot
    1  0.000  0.004  0.000  0.004
    2  0.000  0.004  0.000  0.004
    3  0.000  0.004  0.000  0.004
    4  0.000  0.004  0.000  0.004
    5  0.000  0.126  0.000  0.126
    6  0.000  0.126  0.000  0.126
    7  0.000  0.126  0.000  0.126
    8  0.000  0.126  0.000  0.126
    9  0.000  0.052  0.000  0.052
   10  0.000  0.052  0.000  0.052
tot    0.000  0.623  0.001  0.624

band    40 # energy   -1.07834381 # occ.  2.00000000

ion      s      p      d    tot
    1  0.000  0.005  0.000  0.005
    2  0.000  0.005  0.000  0.005
    3  0.000  0.002  0.000  0.002
    4  0.000  0.002  0.000  0.002
    5  0.000  0.106  0.000  0.106
    6  0.000  0.106  0.000  0.106
    7  0.000  0.106  0.000  0.106
    8  0.000  0.106  0.000  0.106
    9  0.000  0.094  0.000  0.094
   10  0.000  0.094  0.000  0.094
tot    0.000  0.628  0.000  0.628

band    41 # energy   -0.97247025 # occ.  2.00000000

ion      s      p      d    tot
    1  0.000  0.000  0.001  0.001
    2  0.000  0.000  0.001  0.001
    3  0.000  0.000  0.000  0.000
    4  0.000  0.000  0.000  0.000
    5  0.000  0.081  0.000  0.081
    6  0.000  0.081  0.000  0.081
    7  0.000  0.081  0.000  0.081
    8  0.000  0.081  0.000  0.081
    9  0.000  0.146  0.000  0.146
   10  0.000  0.146  0.000  0.146
tot    0.000  0.617  0.003  0.619

band    42 # energy   -0.89555501 # occ.  2.00000000

ion      s      p      d    tot
    1  0.000  0.000  0.001  0.001
    2  0.000  0.000  0.001  0.001
    3  0.000  0.000  0.001  0.001
    4  0.000  0.000  0.001  0.001
    5  0.000  0.158  0.000  0.158
    6  0.000  0.158  0.000  0.158
    7  0.000  0.158  0.000  0.158
    8  0.000  0.158  0.000  0.158
    9  0.000  0.000  0.000  0.000
   10  0.000  0.000  0.000  0.000
tot    0.000  0.634  0.003  0.636

band    43 # energy   -0.88942434 # occ.  2.00000000

ion      s      p      d    tot
    1  0.001  0.000  0.001  0.002
    2  0.001  0.000  0.001  0.002
    3  0.007  0.000  0.000  0.008
    4  0.007  0.000  0.000  0.008
    5  0.000  0.068  0.000  0.069
    6  0.000  0.068  0.000  0.069
    7  0.000  0.068  0.000  0.069
    8  0.000  0.068  0.000  0.069
    9  0.000  0.170  0.000  0.170
   10  0.000  0.170  0.000  0.170
tot    0.018  0.613  0.002  0.633

band    44 # energy    0.53718157 # occ.  2.00000000

ion      s      p      d    tot
    1  0.000  0.000  0.000  0.000
    2  0.000  0.000  0.000  0.000
    3  0.128  0.000  0.000  0.128
    4  0.128  0.000  0.000  0.128
    5  0.000  0.085  0.000  0.085
    6  0.000  0.085  0.000  0.085
    7  0.000  0.085  0.000  0.085
    8  0.000  0.085  0.000  0.085
    9  0.000  0.089  0.000  0.089
   10  0.000  0.089  0.000  0.089
tot    0.257  0.520  0.001  0.778

band    45 # energy    2.77201552 # occ.  0.00000000

ion      s      p      d    tot
    1  0.000  0.000  0.002  0.002
    2  0.000  0.000  0.002  0.002
    3  0.000  0.178  0.000  0.178
    4  0.000  0.178  0.000  0.178
    5  0.011  0.006  0.005  0.022
    6  0.011  0.006  0.005  0.022
    7  0.011  0.006  0.005  0.022
    8  0.011  0.006  0.005  0.022
    9  0.000  0.000  0.003  0.003
   10  0.000  0.000  0.003  0.003
tot    0.043  0.381  0.030  0.454

band    46 # energy    2.77574068 # occ.  0.00000000

ion      s      p      d    tot
    1  0.000  0.000  0.001  0.001
    2  0.000  0.000  0.001  0.001
    3  0.000  0.190  0.000  0.190
    4  0.000  0.190  0.000  0.190
    5  0.012  0.001  0.006  0.019
    6  0.012  0.001  0.006  0.019
    7  0.012  0.001  0.006  0.019
    8  0.012  0.001  0.006  0.019
    9  0.000  0.001  0.003  0.004
   10  0.000  0.001  0.003  0.004
tot    0.047  0.385  0.032  0.464

band    47 # energy    2.86424515 # occ.  0.00000000

ion      s      p      d    tot
    1  0.000  0.000  0.002  0.002
    2  0.000  0.000  0.002  0.002
    3  0.000  0.181  0.000  0.181
    4  0.000  0.181  0.000  0.181
    5  0.000  0.001  0.003  0.004
    6  0.000  0.001  0.003  0.004
    7  0.000  0.001  0.003  0.004
    8  0.000  0.001  0.003  0.004
    9  0.022  0.009  0.008  0.039
   10  0.022  0.009  0.008  0.039
tot    0.044  0.385  0.031  0.460

band    48 # energy    4.72159655 # occ.  0.00000000

ion      s      p      d    tot
    1  0.022  0.000  0.002  0.024
    2  0.022  0.000  0.002  0.024
    3  0.004  0.000  0.000  0.004
    4  0.004  0.000  0.000  0.004
    5  0.010  0.000  0.002  0.012
    6  0.010  0.000  0.002  0.012
    7  0.010  0.000  0.002  0.012
    8  0.010  0.000  0.002  0.012
    9  0.008  0.001  0.001  0.010
   10  0.008  0.001  0.001  0.010
tot    0.107  0.002  0.015  0.125

band    49 # energy    5.74332245 # occ.  0.00000000

ion      s      p      d    tot
    1  0.000  0.000  0.060  0.060
    2  0.000  0.000  0.060  0.060
    3  0.000  0.000  0.000  0.000
    4  0.000  0.000  0.000  0.000
    5  0.000  0.004  0.006  0.009
    6  0.000  0.004  0.006  0.009
    7  0.000  0.004  0.006  0.009
    8  0.000  0.004  0.006  0.009
    9  0.007  0.000  0.002  0.009
   10  0.007  0.000  0.002  0.009
tot    0.017  0.015  0.145  0.177

band    50 # energy    6.07563432 # occ.  0.00000000

ion      s      p      d    tot
    1  0.000  0.000  0.060  0.060
    2  0.000  0.000  0.060  0.060
    3  0.000  0.000  0.000  0.000
    4  0.000  0.000  0.000  0.000
    5  0.004  0.001  0.003  0.009
    6  0.004  0.001  0.003  0.009
    7  0.004  0.001  0.003  0.009
    8  0.004  0.001  0.003  0.009
    9  0.000  0.011  0.008  0.019
   10  0.000  0.011  0.008  0.019
tot    0.018  0.028  0.149  0.194

band    51 # energy    6.24762427 # occ.  0.00000000

ion      s      p      d    tot
    1  0.000  0.000  0.003  0.003
    2  0.000  0.000  0.003  0.003
    3  0.000  0.186  0.000  0.186
    4  0.000  0.186  0.000  0.186
    5  0.000  0.056  0.003  0.059
    6  0.000  0.056  0.003  0.059
    7  0.000  0.056  0.003  0.059
    8  0.000  0.056  0.003  0.059
    9  0.000  0.008  0.000  0.008
   10  0.000  0.008  0.000  0.008
tot    0.000  0.611  0.016  0.627

band    52 # energy    6.45184202 # occ.  0.00000000

ion      s      p      d    tot
    1  0.000  0.000  0.009  0.009
    2  0.000  0.000  0.009  0.009
    3  0.000  0.163  0.000  0.163
    4  0.000  0.163  0.000  0.163
    5  0.001  0.008  0.002  0.011
    6  0.001  0.008  0.002  0.011
    7  0.001  0.008  0.002  0.011
    8  0.001  0.008  0.002  0.011
    9  0.000  0.106  0.002  0.108
   10  0.000  0.106  0.002  0.108
tot    0.004  0.570  0.030  0.603

band    53 # energy    6.50198983 # occ.  0.00000000

ion      s      p      d    tot
    1  0.000  0.002  0.065  0.067
    2  0.000  0.002  0.065  0.067
    3  0.000  0.000  0.007  0.007
    4  0.000  0.000  0.007  0.007
    5  0.000  0.002  0.008  0.010
    6  0.000  0.002  0.008  0.010
    7  0.000  0.002  0.008  0.010
    8  0.000  0.002  0.008  0.011
    9  0.000  0.002  0.007  0.009
   10  0.000  0.002  0.007  0.009
tot    0.000  0.019  0.189  0.208

band    54 # energy    6.51038958 # occ.  0.00000000

ion      s      p      d    tot
    1  0.000  0.001  0.059  0.061
    2  0.000  0.001  0.059  0.061
    3  0.000  0.000  0.009  0.009
    4  0.000  0.000  0.009  0.009
    5  0.000  0.002  0.009  0.012
    6  0.000  0.002  0.009  0.012
    7  0.000  0.002  0.009  0.012
    8  0.000  0.002  0.009  0.012
    9  0.000  0.001  0.008  0.009
   10  0.000  0.001  0.008  0.009
tot    0.003  0.013  0.188  0.204

band    55 # energy    6.53755847 # occ.  0.00000000

ion      s      p      d    tot
    1  0.031  0.000  0.001  0.032
    2  0.031  0.000  0.001  0.032
    3  0.000  0.000  0.000  0.000
    4  0.000  0.000  0.000  0.000
    5  0.000  0.001  0.008  0.009
    6  0.000  0.001  0.008  0.009
    7  0.000  0.001  0.008  0.009
    8  0.000  0.001  0.008  0.009
    9  0.000  0.004  0.008  0.012
   10  0.000  0.004  0.008  0.012
tot    0.062  0.013  0.048  0.123

band    56 # energy    6.78204328 # occ.  0.00000000

ion      s      p      d    tot
    1  0.000  0.000  0.069  0.069
    2  0.000  0.000  0.072  0.072
    3  0.000  0.036  0.004  0.041
    4  0.000  0.003  0.004  0.007
    5  0.000  0.008  0.004  0.013
    6  0.000  0.009  0.006  0.015
    7  0.000  0.008  0.004  0.013
    8  0.000  0.009  0.006  0.015
    9  0.002  0.001  0.009  0.012
   10  0.002  0.001  0.009  0.012
tot    0.004  0.077  0.188  0.269


 k-point     2 :    0.33333333 0.00000000 0.00000000     weight = 0.11111111

band     1 # energy  -20.88377075 # occ.  2.00000000

ion      s      p      d    tot
    1  0.444  0.000  0.000  0.444
    2  0.444  0.000  0.000  0.444
    3  0.000  0.000  0.000  0.000
    4  0.000  0.000  0.000  0.000
    5  0.000  0.000  0.000  0.000
    6  0.000  0.000  0.000  0.000
    7  0.000  0.000  0.000  0.000
    8  0.000  0.000  0.000  0.000
    9  0.000  0.000  0.000  0.000
   10  0.000  0.000  0.000  0.000
tot    0.888  0.000  0.000  0.888

band     2 # energy  -20.88176277 # occ.  2.00000000

ion      s      p      d    tot
    1  0.444  0.000  0.000  0.444
    2  0.444  0.000  0.000  0.444
    3  0.000  0.000  0.000  0.000
    4  0.000  0.000  0.000  0.000
    5  0.000  0.000  0.000  0.000
    6  0.000  0.000  0.000  0.000
    7  0.000  0.000  0.000  0.000
    8  0.000  0.000  0.000  0.000
    9  0.000  0.000  0.000  0.000
   10  0.000  0.000  0.000  0.000
tot    0.888  0.000  0.000  0.888

band     3 # energy  -16.41312856 # occ.  2.00000000

ion      s      p      d    tot
    1  0.000  0.000  0.000  0.000
    2  0.000  0.000  0.000  0.000
    3  0.000  0.000  0.469  0.469
    4  0.000  0.000  0.463  0.463
    5  0.008  0.000  0.000  0.008
    6  0.008  0.000  0.000  0.008
    7  0.008  0.000  0.000  0.008
    8  0.008  0.000  0.000  0.008
    9  0.000  0.000  0.000  0.000
   10  0.000  0.000  0.000  0.000
tot    0.031  0.001  0.932  0.963

band     4 # energy  -16.40955779 # occ.  2.00000000

ion      s      p      d    tot
    1  0.000  0.000  0.000  0.000
    2  0.000  0.000  0.000  0.000
    3  0.000  0.000  0.464  0.464
    4  0.000  0.000  0.469  0.469
    5  0.003  0.000  0.000  0.003
    6  0.003  0.000  0.000  0.003
    7  0.003  0.000  0.000  0.003
    8  0.003  0.000  0.000  0.003
    9  0.010  0.000  0.000  0.010
   10  0.010  0.000  0.000  0.010
tot    0.030  0.001  0.932  0.963

band     5 # energy  -16.36616872 # occ.  2.00000000

ion      s      p      d    tot
    1  0.000  0.000  0.000  0.000
    2  0.000  0.000  0.000  0.000
    3  0.000  0.000  0.475  0.475
    4  0.000  0.000  0.481  0.481
    5  0.003  0.000  0.000  0.003
    6  0.003  0.000  0.000  0.003
    7  0.003  0.000  0.000  0.003
    8  0.003  0.000  0.000  0.003
    9  0.000  0.000  0.000  0.000
   10  0.000  0.000  0.000  0.000
tot    0.011  0.002  0.957  0.970

band     6 # energy  -16.36254294 # occ.  2.00000000

ion      s      p      d    tot
    1  0.000  0.000  0.000  0.000
    2  0.000  0.000  0.000  0.000
    3  0.000  0.000  0.481  0.481
    4  0.000  0.000  0.476  0.476
    5  0.001  0.000  0.000  0.001
    6  0.001  0.000  0.000  0.001
    7  0.001  0.000  0.000  0.001
    8  0.001  0.000  0.000  0.001
    9  0.004  0.001  0.000  0.004
   10  0.004  0.001  0.000  0.004
tot    0.011  0.002  0.957  0.970

band     7 # energy  -16.27206378 # occ.  2.00000000

ion      s      p      d    tot
    1  0.000  0.000  0.000  0.000
    2  0.000  0.000  0.000  0.000
    3  0.000  0.000  0.332  0.332
    4  0.000  0.000  0.645  0.645
    5  0.000  0.000  0.000  0.000
    6  0.000  0.000  0.000  0.000
    7  0.000  0.000  0.000  0.000
    8  0.000  0.000  0.000  0.000
    9  0.000  0.000  0.000  0.000
   10  0.000  0.000  0.000  0.000
tot    0.000  0.000  0.978  0.978

band     8 # energy  -16.27102960 # occ.  2.00000000

ion      s      p      d    tot
    1  0.000  0.000  0.000  0.000
    2  0.000  0.000  0.000  0.000
    3  0.000  0.000  0.645  0.645
    4  0.000  0.000  0.332  0.332
    5  0.000  0.000  0.000  0.000
    6  0.000  0.000  0.000  0.000
    7  0.000  0.000  0.000  0.000
    8  0.000  0.000  0.000  0.000
    9  0.000  0.000  0.000  0.000
   10  0.000  0.000  0.000  0.000
tot    0.000  0.000  0.978  0.978

band     9 # energy  -16.26922366 # occ.  2.00000000

ion      s      p      d    tot
    1  0.000  0.000  0.000  0.000
    2  0.000  0.000  0.000  0.000
    3  0.000  0.000  0.455  0.455
    4  0.000  0.000  0.522  0.522