<?xml version="1.0" encoding="ISO-8859-1"?>
<modeling>
 <generator>
  <i name="program" type="string">vasp </i>
  <i name="version" type="string">5.4.4.18Apr17-6-g9f103f2a35  </i>
  <i name="subversion" type="string">(build Jun 22 2020 09:27:21) complex            parallel </i>
  <i name="platform" type="string">tx2_gcc-7.3_libsci-18.07_cray-fftw-3.3.8 </i>
  <i name="date" type="string">2021 09 20 </i>
  <i name="time" type="string">15:14:54 </i>
 </generator>
 <incar>
  <i type="string" name="SYSTEM"> CsPbBr3 cubic bulk</i>
  <i type="string" name="PREC">accurate</i>
  <i type="string" name="ALGO"> NORMAL   ! Electronic minimisation algo</i>
  <i type="logical" name="ADDGRID"> T  </i>
  <i type="int" name="NELM">   200</i>
  <i type="int" name="IBRION">     2</i>
  <i name="EDIFF">      0.00000100</i>
  <i name="EDIFFG">     -0.01000000</i>
  <i type="int" name="NSW">     0</i>
  <i type="int" name="ISIF">     3</i>
  <i type="int" name="ISYM">     2</i>
  <i name="ENCUT">    300.00000000</i>
  <i name="POTIM">      0.50000000</i>
  <i type="string" name="LREAL"> AUTO</i>
  <i type="int" name="ISMEAR">     0</i>
  <i name="SIGMA">      0.01000000</i>
  <i type="logical" name="LWAVE"> F  </i>
  <i type="logical" name="LCHARG"> F  </i>
  <i type="logical" name="LVHAR"> T  </i>
  <i type="int" name="LORBIT">    10</i>
  <i type="logical" name="LASPH"> T  </i>
  <v type="int" name="KPOINT_BSE">    -1     0     0     0</v>
  <i type="int" name="NELM">   200</i>
  <i type="string" name="METAGGA"> SCAN       ! PBE exchange-correlation</i>
  <i type="logical" name="LASPH"> T  </i>
 </incar>
 <structure name="primitive_cell" >
  <crystal>
   <varray name="basis" >
    <v>       5.82532652       5.89125710      -0.08608885 </v>
    <v>       5.82532652       0.08608885      -5.89125710 </v>
    <v>      -0.00000000       5.97734594      -5.97734594 </v>
   </varray>
   <i name="volume">    404.27182251 </i>
   <varray name="rec_basis" >
    <v>       0.08583210       0.08613015       0.08613015 </v>
    <v>       0.08583210      -0.08613015      -0.08613015 </v>
    <v>      -0.08583210       0.08364917      -0.08364917 </v>
   </varray>
  </crystal>
  <varray name="positions" >
   <v>      -0.25000000      -0.25000000      -0.25933415 </v>
   <v>      -0.25000000      -0.25000000       0.17078226 </v>
   <v>       0.20624461      -0.29375539       0.29375539 </v>
   <v>      -0.20624461       0.29375539      -0.29375539 </v>
   <v>       0.29375539      -0.20624461      -0.29375539 </v>
   <v>      -0.29375539       0.20624461       0.29375539 </v>
   <v>       0.25000000       0.25000000      -0.17078226 </v>
   <v>       0.00000000       0.00000000       0.00000000 </v>
   <v>      -0.50000000      -0.50000000      -0.50000000 </v>
   <v>       0.25000000       0.25000000       0.25933415 </v>
  </varray>
 </structure>
 <varray name="primitive_index" >
  <v type="int" >        1 </v>
  <v type="int" >       10 </v>
  <v type="int" >        5 </v>
  <v type="int" >        6 </v>
  <v type="int" >        7 </v>
  <v type="int" >        8 </v>
  <v type="int" >        9 </v>
  <v type="int" >        3 </v>
  <v type="int" >        4 </v>
  <v type="int" >        2 </v>
 </varray>
 <kpoints>
  <generation param="Gamma">
   <v type="int" name="divisions">       3        3        4 </v>
   <v name="usershift">      0.00000000       0.00000000       0.00000000 </v>
   <v name="genvec1">      0.33333333      -0.00000000      -0.00000000 </v>
   <v name="genvec2">     -0.00000000       0.33333333       0.00000000 </v>
   <v name="genvec3">     -0.00000000      -0.00000000       0.25000000 </v>
   <v name="shift">      0.00000000       0.00000000       0.00000000 </v>
  </generation>
  <varray name="kpointlist" >
   <v>       0.00000000       0.00000000       0.00000000 </v>
   <v>       0.33333333       0.00000000       0.00000000 </v>
   <v>       0.33333333       0.33333333       0.00000000 </v>
   <v>      -0.33333333       0.33333333       0.00000000 </v>
   <v>       0.00000000       0.00000000       0.25000000 </v>
   <v>       0.33333333       0.00000000       0.25000000 </v>
   <v>      -0.33333333       0.00000000       0.25000000 </v>
   <v>       0.33333333       0.33333333       0.25000000 </v>
   <v>      -0.33333333       0.33333333       0.25000000 </v>
   <v>      -0.33333333      -0.33333333       0.25000000 </v>
   <v>       0.00000000       0.00000000       0.50000000 </v>
   <v>       0.33333333       0.00000000       0.50000000 </v>
   <v>       0.33333333       0.33333333       0.50000000 </v>
   <v>      -0.33333333       0.33333333       0.50000000 </v>
  </varray>
  <varray name="weights" >
   <v>       0.02777778 </v>
   <v>       0.11111111 </v>
   <v>       0.05555556 </v>
   <v>       0.05555556 </v>
   <v>       0.05555556 </v>
   <v>       0.11111111 </v>
   <v>       0.11111111 </v>
   <v>       0.05555556 </v>
   <v>       0.11111111 </v>
   <v>       0.05555556 </v>
   <v>       0.02777778 </v>
   <v>       0.11111111 </v>
   <v>       0.05555556 </v>
   <v>       0.05555556 </v>
  </varray>
 </kpoints>
 <parameters>
  <separator name="general" >
   <i type="string" name="SYSTEM">CsPbBr3 cubic bulk</i>
   <i type="logical" name="LCOMPAT"> F  </i>
  </separator>
  <separator name="electronic" >
   <i type="string" name="PREC">accura</i>
   <i name="ENMAX">    300.00000000</i>
   <i name="ENAUG">    503.85200000</i>
   <i name="EDIFF">      0.00000100</i>
   <i type="int" name="IALGO">    38</i>
   <i type="int" name="IWAVPR">    10</i>
   <i type="int" name="NBANDS">    56</i>
   <i name="NELECT">     88.00000000</i>
   <i type="int" name="TURBO">     0</i>
   <i type="int" name="IRESTART">     0</i>
   <i type="int" name="NREBOOT">     0</i>
   <i type="int" name="NMIN">     0</i>
   <i name="EREF">      0.00000000</i>
   <separator name="electronic smearing" >
    <i type="int" name="ISMEAR">     0</i>
    <i name="SIGMA">      0.01000000</i>
    <i name="KSPACING">      0.50000000</i>
    <i type="logical" name="KGAMMA"> T  </i>
   </separator>
   <separator name="electronic projectors" >
    <i type="logical" name="LREAL"> T  </i>
    <v name="ROPT">     -0.00025000     -0.00025000     -0.00025000</v>
    <i type="int" name="LMAXPAW">  -100</i>
    <i type="int" name="LMAXMIX">     2</i>
    <i type="logical" name="NLSPLINE"> F  </i>
   </separator>
   <separator name="electronic startup" >
    <i type="int" name="ISTART">     0</i>
    <i type="int" name="ICHARG">     2</i>
    <i type="int" name="INIWAV">     1</i>
   </separator>
   <separator name="electronic spin" >
    <i type="int" name="ISPIN">     1</i>
    <i type="logical" name="LNONCOLLINEAR"> F  </i>
    <v name="MAGMOM">      1.00000000      1.00000000      1.00000000      1.00000000      1.00000000      1.00000000      1.00000000      1.00000000      1.00000000      1.00000000</v>
    <i name="NUPDOWN">     -1.00000000</i>
    <i type="logical" name="LSORBIT"> F  </i>
    <v name="SAXIS">      0.00000000      0.00000000      1.00000000</v>
    <i type="logical" name="LSPIRAL"> F  </i>
    <v name="QSPIRAL">      0.00000000      0.00000000      0.00000000</v>
    <i type="logical" name="LZEROZ"> F  </i>
   </separator>
   <separator name="electronic exchange-correlation" >
    <i type="logical" name="LASPH"> T  </i>
    <i type="logical" name="LMETAGGA"> F  </i>
   </separator>
   <separator name="electronic convergence" >
    <i type="int" name="NELM">   200</i>
    <i type="int" name="NELMDL">     0</i>
    <i type="int" name="NELMIN">     2</i>
    <i name="ENINI">    300.00000000</i>
    <separator name="electronic convergence detail" >
     <i type="logical" name="LDIAG"> T  </i>
     <i type="logical" name="LSUBROT"> F  </i>
     <i name="WEIMIN">      0.00000000</i>
     <i name="EBREAK">      0.00000000</i>
     <i name="DEPER">      0.30000000</i>
     <i type="int" name="NRMM">     4</i>
     <i name="TIME">      0.40000000</i>
    </separator>
   </separator>
   <separator name="electronic mixer" >
    <i name="AMIX">      0.40000000</i>
    <i name="BMIX">      1.00000000</i>
    <i name="AMIN">      0.10000000</i>
    <i name="AMIX_MAG">      1.60000000</i>
    <i name="BMIX_MAG">      1.00000000</i>
    <separator name="electronic mixer details" >
     <i type="int" name="IMIX">     4</i>
     <i type="logical" name="MIXFIRST"> F  </i>
     <i type="int" name="MAXMIX">   -45</i>
     <i name="WC">    100.00000000</i>
     <i type="int" name="INIMIX">     1</i>
     <i type="int" name="MIXPRE">     1</i>
     <i type="int" name="MREMOVE">     5</i>
    </separator>
   </separator>
   <separator name="electronic dipolcorrection" >
    <i type="logical" name="LDIPOL"> F  </i>
    <i type="logical" name="LMONO"> F  </i>
    <i type="int" name="IDIPOL">     0</i>
    <i name="EPSILON">      1.00000000</i>
    <v name="DIPOL">   -100.00000000   -100.00000000   -100.00000000</v>
    <i name="EFIELD">      0.00000000</i>
   </separator>
  </separator>
  <separator name="grids" >
   <i type="int" name="NGX">    48</i>
   <i type="int" name="NGY">    48</i>
   <i type="int" name="NGZ">    48</i>
   <i type="int" name="NGXF">    96</i>
   <i type="int" name="NGYF">    96</i>
   <i type="int" name="NGZF">    96</i>
   <i type="logical" name="ADDGRID"> T  </i>
  </separator>
  <separator name="ionic" >
   <i type="int" name="NSW">     0</i>
   <i type="int" name="IBRION">    -1</i>
   <i type="int" name="MDALGO">     0</i>
   <i type="int" name="ISIF">     3</i>
   <i name="PSTRESS">      0.00000000</i>
   <i name="EDIFFG">     -0.01000000</i>
   <i type="int" name="NFREE">     1</i>
   <i name="POTIM">      0.50000000</i>
   <i name="SMASS">     -3.00000000</i>
   <i name="SCALEE">      1.00000000</i>
  </separator>
  <separator name="ionic md" >
   <i name="TEBEG">      0.00010000</i>
   <i name="TEEND">      0.00010000</i>
   <i type="int" name="NBLOCK">     1</i>
   <i type="int" name="KBLOCK">     1</i>
   <i type="int" name="NPACO">   256</i>
   <i name="APACO">     16.00000000</i>
  </separator>
  <separator name="symmetry" >
   <i type="int" name="ISYM">     2</i>
   <i name="SYMPREC">      0.00001000</i>
  </separator>
  <separator name="dos" >
   <i type="int" name="LORBIT">    10</i>
   <v name="RWIGS">     -1.00000000     -1.00000000     -1.00000000</v>
   <i type="int" name="NEDOS">   301</i>
   <i name="EMIN">     10.00000000</i>
   <i name="EMAX">    -10.00000000</i>
   <i name="EFERMI">      0.00000000</i>
  </separator>
  <separator name="writing" >
   <i type="int" name="NWRITE">     2</i>
   <i type="logical" name="LWAVE"> F  </i>
   <i type="logical" name="LDOWNSAMPLE"> F  </i>
   <i type="logical" name="LCHARG"> F  </i>
   <i type="logical" name="LPARD"> F  </i>
   <i type="logical" name="LVTOT"> F  </i>
   <i type="logical" name="LVHAR"> T  </i>
   <i type="logical" name="LELF"> F  </i>
   <i type="logical" name="LOPTICS"> F  </i>
   <v name="STM">      0.00000000      0.00000000      0.00000000      0.00000000      0.00000000      0.00000000      0.00000000</v>
  </separator>
  <separator name="performance" >
   <i type="int" name="NPAR">     8</i>
   <i type="int" name="NSIM">     4</i>
   <i type="int" name="NBLK">    -1</i>
   <i type="logical" name="LPLANE"> T  </i>
   <i type="logical" name="LSCALAPACK"> T  </i>
   <i type="logical" name="LSCAAWARE"> F  </i>
   <i type="logical" name="LSCALU"> F  </i>
   <i type="logical" name="LASYNC"> F  </i>
   <i type="logical" name="LORBITALREAL"> F  </i>
  </separator>
  <separator name="miscellaneous" >
   <i type="int" name="IDIOT">     3</i>
   <i type="int" name="ISPECIAL">     0</i>
   <i type="logical" name="LMUSIC"> F  </i>
   <v name="POMASS">    132.90000000    207.20000000     79.90400000</v>
   <v name="DARWINR">      0.00000000      0.00000000      0.00000000</v>
   <v name="DARWINV">      1.00000000      1.00000000      1.00000000</v>
   <i type="logical" name="LCORR"> T  </i>
  </separator>
  <i type="logical" name="GGA_COMPAT"> T  </i>
  <i type="logical" name="LBERRY"> F  </i>
  <i type="int" name="ICORELEVEL">     0</i>
  <i type="logical" name="LDAU"> F  </i>
  <i type="int" name="I_CONSTRAINED_M">     0</i>
  <separator name="electronic exchange-correlation" >
   <i type="string" name="GGA">--</i>
   <i type="int" name="VOSKOWN">     0</i>
   <i type="logical" name="LHFCALC"> F  </i>
   <i type="string" name="PRECFOCK"></i>
   <i type="logical" name="LSYMGRAD"> F  </i>
   <i type="logical" name="LHFONE"> F  </i>
   <i type="logical" name="LRHFCALC"> F  </i>
   <i type="logical" name="LTHOMAS"> F  </i>
   <i type="logical" name="LMODELHF"> F  </i>
   <i name="ENCUT4O">     -1.00000000</i>
   <i type="int" name="EXXOEP">     0</i>
   <i type="int" name="FOURORBIT">     0</i>
   <i name="AEXX">      0.00000000</i>
   <i name="HFALPHA">      0.00000000</i>
   <i name="MCALPHA">      0.00000000</i>
   <i name="ALDAX">      1.00000000</i>
   <i name="AGGAX">      1.00000000</i>
   <i name="ALDAC">      1.00000000</i>
   <i name="AGGAC">      1.00000000</i>
   <i type="int" name="NKREDX">     1</i>
   <i type="int" name="NKREDY">     1</i>
   <i type="int" name="NKREDZ">     1</i>
   <i type="logical" name="SHIFTRED"> F  </i>
   <i type="logical" name="ODDONLY"> F  </i>
   <i type="logical" name="EVENONLY"> F  </i>
   <i type="int" name="LMAXFOCK">     0</i>
   <i type="int" name="NMAXFOCKAE">     0</i>
   <i type="logical" name="LFOCKAEDFT"> F  </i>
   <i name="HFSCREEN">      0.00000000</i>
   <i name="HFSCREENC">      0.00000000</i>
   <i type="int" name="NBANDSGWLOW">     0</i>
  </separator>
  <separator name="vdW DFT" >
   <i type="logical" name="LUSE_VDW"> F  </i>
   <i name="Zab_VDW">     -0.84910000</i>
   <i name="PARAM1">      0.12340000</i>
   <i name="PARAM2">      1.00000000</i>
   <i name="PARAM3">      0.00000000</i>
  </separator>
  <separator name="model GW" >
   <i type="int" name="MODEL_GW">     0</i>
   <i name="MODEL_EPS0">     24.25630935</i>
   <i name="MODEL_ALPHA">      1.00000000</i>
  </separator>
  <separator name="linear response parameters" >
   <i type="logical" name="LEPSILON"> F  </i>
   <i type="logical" name="LRPA"> F  </i>
   <i type="logical" name="LNABLA"> F  </i>
   <i type="logical" name="LVEL"> F  </i>
   <i type="int" name="KINTER">     0</i>
   <i name="CSHIFT">      0.10000000</i>
   <i name="OMEGAMAX">     -1.00000000</i>
   <i name="DEG_THRESHOLD">      0.00200000</i>
   <i name="RTIME">     -0.10000000</i>
   <i name="WPLASMAI">      0.00000000</i>
   <v name="DFIELD">      0.00000000      0.00000000      0.00000000</v>
   <v name="WPLASMA">      0.00000000      0.00000000      0.00000000      0.00000000      0.00000000      0.00000000      0.00000000      0.00000000      0.00000000</v>
  </separator>
  <separator name="orbital magnetization" >
   <i type="logical" name="NUCIND"> F  </i>
   <v name="MAGPOS">      0.00000000      0.00000000      0.00000000</v>
   <i type="logical" name="LNICSALL"> T  </i>
   <i type="logical" name="ORBITALMAG"> F  </i>
   <i type="logical" name="LMAGBLOCH"> F  </i>
   <i type="logical" name="LCHIMAG"> F  </i>
   <i type="logical" name="LGAUGE"> T  </i>
   <i type="int" name="MAGATOM">     0</i>
   <v name="MAGDIPOL">      0.00000000      0.00000000      0.00000000</v>
   <v name="AVECCONST">      0.00000000      0.00000000      0.00000000</v>
  </separator>
  <separator name="response functions" >
   <i type="logical" name="LADDER"> F  </i>
   <i type="logical" name="LRPAFORCE"> F  </i>
   <i type="logical" name="LFXC"> F  </i>
   <i type="logical" name="LHARTREE"> T  </i>
   <i type="int" name="IBSE">     0</i>
   <v type="int" name="KPOINT">    -1     0     0     0</v>
   <i type="logical" name="LTCTE"> F  </i>
   <i type="logical" name="LTETE"> F  </i>
   <i type="logical" name="LTRIPLET"> F  </i>
   <i type="logical" name="LFXCEPS"> F  </i>
   <i type="logical" name="LFXHEG"> F  </i>
   <i type="int" name="NATURALO">     2</i>
   <i type="logical" name="L2ORDER"> F  </i>
   <i type="logical" name="LMP2LT"> F  </i>
   <i type="logical" name="LUSEW"> F  </i>
   <i name="ENCUTGW">     -2.00000000</i>
   <i name="ENCUTGWSOFT">     -2.00000000</i>
   <i name="ENCUTLF">     -1.00000000</i>
   <i type="int" name="LMAXMP2">    -1</i>
   <i name="SCISSOR">      0.00000000</i>
   <i type="int" name="NOMEGA">     0</i>
   <i type="int" name="NOMEGAR">     0</i>
   <i type="int" name="NBANDSGW">    -1</i>
   <i type="int" name="NBANDSO">    -1</i>
   <i type="int" name="NBANDSV">    -1</i>
   <i type="int" name="NELM">   200</i>
   <i type="int" name="NELMHF">     1</i>
   <i type="int" name="DIM">     3</i>
   <i type="int" name="ANTIRES">     0</i>
   <i name="OMEGAMAX">    -30.00000000</i>
   <i name="OMEGAMIN">    -30.00000000</i>
   <i name="OMEGATL">   -200.00000000</i>
   <i type="int" name="OMEGAGRID">   140</i>
   <i name="CSHIFT">     -0.10000000</i>
   <i type="logical" name="SELFENERGY"> F  </i>
   <i type="logical" name="LSPECTRAL"> F  </i>
   <i type="logical" name="LSPECTRALGW"> F  </i>
   <i type="logical" name="LSINGLES"> F  </i>
   <i type="logical" name="LFERMIGW"> F  </i>
   <i type="logical" name="ODDONLYGW"> F  </i>
   <i type="logical" name="EVENONLYGW"> F  </i>
   <i type="int" name="NKREDLFX">     1</i>
   <i type="int" name="NKREDLFY">     1</i>
   <i type="int" name="NKREDLFZ">     1</i>
   <i type="int" name="MAXMEM">  2800</i>
   <i type="int" name="TELESCOPE">     0</i>
   <i type="int" name="TAUPAR">     1</i>
   <i type="int" name="OMEGAPAR">    -1</i>
   <i name="LAMBDA">      1.00000000</i>
  </separator>
  <separator name="External order field" >
   <i name="OFIELD_KAPPA">      0.00000000</i>
   <v name="OFIELD_K">      0.00000000      0.00000000      0.00000000</v>
   <i name="OFIELD_Q6_NEAR">      0.00000000</i>
   <i name="OFIELD_Q6_FAR">      0.00000000</i>
   <i name="OFIELD_A">      0.00000000</i>
  </separator>
 </parameters>
 <atominfo>
  <atoms>      10 </atoms>
  <types>       3 </types>
  <array name="atoms" >
   <dimension dim="1">ion</dimension>
   <field type="string">element</field>
   <field type="int">atomtype</field>
   <set>
    <rc><c>Cs</c><c>   1</c></rc>
    <rc><c>Cs</c><c>   1</c></rc>
    <rc><c>Pb</c><c>   2</c></rc>
    <rc><c>Pb</c><c>   2</c></rc>
    <rc><c>Br</c><c>   3</c></rc>
    <rc><c>Br</c><c>   3</c></rc>
    <rc><c>Br</c><c>   3</c></rc>
    <rc><c>Br</c><c>   3</c></rc>
    <rc><c>Br</c><c>   3</c></rc>
    <rc><c>Br</c><c>   3</c></rc>
   </set>
  </array>
  <array name="atomtypes" >
   <dimension dim="1">type</dimension>
   <field type="int">atomspertype</field>
   <field type="string">element</field>
   <field>mass</field>
   <field>valence</field>
   <field type="string">pseudopotential</field>
   <set>
    <rc><c>   2</c><c>Cs</c><c>    132.90000000</c><c>      9.00000000</c><c>  PAW_PBE Cs_sv 08Apr2002               </c></rc>
    <rc><c>   2</c><c>Pb</c><c>    207.20000000</c><c>     14.00000000</c><c>  PAW_PBE Pb_d 06Sep2000                </c></rc>
    <rc><c>   6</c><c>Br</c><c>     79.90400000</c><c>      7.00000000</c><c>  PAW_PBE Br 06Sep2000                  </c></rc>
   </set>
  </array>
 </atominfo>
 <structure name="initialpos" >
  <crystal>
   <varray name="basis" >
    <v>       5.82532652       5.89125710      -0.08608885 </v>
    <v>       5.82532652       0.08608885      -5.89125710 </v>
    <v>      -0.00000000       5.97734594      -5.97734594 </v>
   </varray>
   <i name="volume">    404.27182251 </i>
   <varray name="rec_basis" >
    <v>       0.08583210       0.08613015       0.08613015 </v>
    <v>       0.08583210      -0.08613015      -0.08613015 </v>
    <v>      -0.08583210       0.08364917      -0.08364917 </v>
   </varray>
  </crystal>
  <varray name="positions" >
   <v>       0.75000000       0.75000000       0.74066585 </v>
   <v>       0.25000000       0.25000000       0.25933415 </v>
   <v>       0.00000000       0.00000000       0.00000000 </v>
   <v>       0.50000000       0.50000000       0.50000000 </v>
   <v>       0.20624461       0.70624461       0.29375539 </v>
   <v>       0.79375539       0.29375539       0.70624461 </v>
   <v>       0.29375539       0.79375539       0.70624461 </v>
   <v>       0.70624461       0.20624461       0.29375539 </v>
   <v>       0.25000000       0.25000000       0.82921774 </v>
   <v>       0.75000000       0.75000000       0.17078226 </v>
  </varray>
 </structure>
 <calculation>
  <scstep>
   <time name="dav">    2.24    2.24</time>
   <time name="total">    3.49    3.51</time>
   <energy>
    <i name="alphaZ">    223.12273183 </i>
    <i name="ewald">  -4596.59750729 </i>
    <i name="hartreedc">  -1840.40501266 </i>
    <i name="XCdc">    230.97345403 </i>
    <i name="pawpsdc">   5408.49043633 </i>
    <i name="pawaedc">  -5676.98046350 </i>
    <i name="eentropy">     -0.00059183 </i>
    <i name="bandstr">    -65.69181882 </i>
    <i name="atom">   6645.14004964 </i>
    <i name="e_fr_energy">    328.05127773 </i>
    <i name="e_wo_entrp">    328.05186956 </i>
    <i name="e_0_energy">    328.05157365 </i>
   </energy>
  </scstep>
  <scstep>
   <time name="dav">    2.59    2.61</time>
   <time name="total">    2.59    2.61</time>
   <energy>
    <i name="e_fr_energy">   -296.39745583 </i>
    <i name="e_wo_entrp">   -296.39745583 </i>
    <i name="e_0_energy">   -296.39745583 </i>
   </energy>
  </scstep>
  <scstep>
   <time name="dav">    2.60    2.63</time>
   <time name="total">    2.60    2.63</time>
   <energy>
    <i name="e_fr_energy">   -374.52456632 </i>
    <i name="e_wo_entrp">   -374.52456632 </i>
    <i name="e_0_energy">   -374.52456632 </i>
   </energy>
  </scstep>
  <scstep>
   <time name="dav">    2.60    2.62</time>
   <time name="total">    2.60    2.62</time>
   <energy>
    <i name="e_fr_energy">   -377.20313878 </i>
    <i name="e_wo_entrp">   -377.20313878 </i>
    <i name="e_0_energy">   -377.20313878 </i>
   </energy>
  </scstep>
  <scstep>
   <time name="dav">    2.70    2.73</time>
   <time name="total">    3.20    3.23</time>
   <energy>
    <i name="e_fr_energy">   -377.30770136 </i>
    <i name="e_wo_entrp">   -377.30770136 </i>
    <i name="e_0_energy">   -377.30770136 </i>
   </energy>
  </scstep>
  <scstep>
   <time name="dav">    2.58    2.58</time>
   <time name="total">    4.30    4.34</time>
   <energy>
    <i name="e_fr_energy">   -357.46744521 </i>
    <i name="e_wo_entrp">   -357.46744521 </i>
    <i name="e_0_energy">   -357.46744521 </i>
   </energy>
  </scstep>
  <scstep>
   <time name="dav">    2.60    2.60</time>
   <time name="total">    4.32    4.35</time>
   <energy>
    <i name="e_fr_energy">   -357.35271919 </i>
    <i name="e_wo_entrp">   -357.35271919 </i>
    <i name="e_0_energy">   -357.35271919 </i>
   </energy>
  </scstep>
  <scstep>
   <time name="dav">    2.49    2.49</time>
   <time name="total">    4.19    4.23</time>
   <energy>
    <i name="e_fr_energy">   -357.39572070 </i>
    <i name="e_wo_entrp">   -357.39572070 </i>
    <i name="e_0_energy">   -357.39572070 </i>
   </energy>
  </scstep>
  <scstep>
   <time name="dav">    2.39    2.39</time>
   <time name="total">    4.10    4.16</time>
   <energy>
    <i name="e_fr_energy">   -357.41664854 </i>
    <i name="e_wo_entrp">   -357.41664854 </i>
    <i name="e_0_energy">   -357.41664854 </i>
   </energy>
  </scstep>
  <scstep>
   <time name="dav">    2.76    2.76</time>
   <time name="total">    4.51    4.51</time>
   <energy>
    <i name="e_fr_energy">   -357.41696762 </i>
    <i name="e_wo_entrp">   -357.41696762 </i>
    <i name="e_0_energy">   -357.41696762 </i>
   </energy>
  </scstep>
  <scstep>
   <time name="dav">    2.43    2.43</time>
   <time name="total">    4.18    4.18</time>
   <energy>
    <i name="e_fr_energy">   -357.41799046 </i>
    <i name="e_wo_entrp">   -357.41799046 </i>
    <i name="e_0_energy">   -357.41799046 </i>
   </energy>
  </scstep>
  <scstep>
   <time name="dav">    2.60    2.60</time>
   <time name="total">    4.33    4.36</time>
   <energy>
    <i name="e_fr_energy">   -357.41778927 </i>
    <i name="e_wo_entrp">   -357.41778927 </i>
    <i name="e_0_energy">   -357.41778927 </i>
   </energy>
  </scstep>
  <scstep>
   <time name="dav">    2.57    2.57</time>
   <time name="total">    4.30    4.34</time>
   <energy>
    <i name="e_fr_energy">   -357.41777831 </i>
    <i name="e_wo_entrp">   -357.41777831 </i>
    <i name="e_0_energy">   -357.41777831 </i>
   </energy>
  </scstep>
  <scstep>
   <time name="dav">    2.03    2.03</time>
   <time name="total">    3.74    3.77</time>
   <energy>
    <i name="e_fr_energy">   -357.41778447 </i>
    <i name="e_wo_entrp">   -357.41778447 </i>
    <i name="e_0_energy">   -357.41778447 </i>
   </energy>
  </scstep>
  <scstep>
   <time name="dav">    1.86    1.86</time>
   <time name="total">    3.58    3.61</time>
   <energy>
    <i name="e_fr_energy">   -357.41778713 </i>
    <i name="e_wo_entrp">   -357.41778713 </i>
    <i name="e_0_energy">   -357.41778713 </i>
   </energy>
  </scstep>
  <scstep>
   <time name="dav">    1.85    1.85</time>
   <time name="total">    3.58    3.60</time>
   <energy>
    <i name="e_fr_energy">   -357.41778565 </i>
    <i name="e_wo_entrp">   -357.41778565 </i>
    <i name="e_0_energy">   -357.41778565 </i>
   </energy>
  </scstep>
  <scstep>
   <time name="dav">    1.84    1.84</time>
   <time name="total">    3.55    3.60</time>
   <energy>
    <i name="e_fr_energy">   -357.41778465 </i>
    <i name="e_wo_entrp">   -357.41778465 </i>
    <i name="e_0_energy">   -357.41778465 </i>
   </energy>
  </scstep>
  <scstep>
   <time name="dav">    1.85    1.85</time>
   <time name="total">    3.09    3.13</time>
   <energy>
    <i name="alphaZ">    223.12273183 </i>
    <i name="ewald">  -4596.59750729 </i>
    <i name="hartreedc">  -1848.12349089 </i>
    <i name="XCdc">    240.72555870 </i>
    <i name="pawpsdc">   5780.77352876 </i>
    <i name="pawaedc">  -6048.89905211 </i>
    <i name="eentropy">     -0.00000000 </i>
    <i name="bandstr">   -753.55960346 </i>
    <i name="atom">   6645.14004964 </i>
    <i name="e_fr_energy">   -357.41778482 </i>
    <i name="e_wo_entrp">   -357.41778482 </i>
    <i name="e_0_energy">   -357.41778482 </i>
   </energy>
  </scstep>
  <structure>
   <crystal>
    <varray name="basis" >
     <v>       5.82532652       5.89125710      -0.08608885 </v>
     <v>       5.82532652       0.08608885      -5.89125710 </v>
     <v>      -0.00000000       5.97734594      -5.97734594 </v>
    </varray>
    <i name="volume">    404.27182251 </i>
    <varray name="rec_basis" >
     <v>       0.08583210       0.08613015       0.08613015 </v>
     <v>       0.08583210      -0.08613015      -0.08613015 </v>
     <v>      -0.08583210       0.08364917      -0.08364917 </v>
    </varray>
   </crystal>
   <varray name="positions" >
    <v>       0.75000000       0.75000000       0.74066585 </v>
    <v>       0.25000000       0.25000000       0.25933415 </v>
    <v>       0.00000000       0.00000000       0.00000000 </v>
    <v>       0.50000000       0.50000000       0.50000000 </v>
    <v>       0.20624461       0.70624461       0.29375539 </v>
    <v>       0.79375539       0.29375539       0.70624461 </v>
    <v>       0.29375539       0.79375539       0.70624461 </v>
    <v>       0.70624461       0.20624461       0.29375539 </v>
    <v>       0.25000000       0.25000000       0.82921774 </v>
    <v>       0.75000000       0.75000000       0.17078226 </v>
   </varray>
  </structure>
  <varray name="forces" >
   <v>       0.00000000       0.00347670      -0.00347670 </v>
   <v>       0.00000000      -0.00347670       0.00347670 </v>
   <v>       0.00000000       0.00000000      -0.00000000 </v>
   <v>       0.00000000       0.00000000      -0.00000000 </v>
   <v>       0.01820730      -0.00000000       0.00000000 </v>
   <v>      -0.01820730       0.00000000      -0.00000000 </v>
   <v>      -0.01820730       0.00000000      -0.00000000 </v>
   <v>       0.01820730      -0.00000000       0.00000000 </v>
   <v>       0.00000000       0.00021039      -0.00021039 </v>
   <v>       0.00000000      -0.00021039       0.00021039 </v>
  </varray>
  <varray name="stress" >
   <v>      -1.81492676       0.00000000       0.00000000 </v>
   <v>       0.00000000      -1.52493801       0.00747782 </v>
   <v>       0.00000000       0.00747782      -1.52493801 </v>
  </varray>
  <energy>
   <i name="e_fr_energy">   -357.41778482 </i>
   <i name="e_wo_entrp">   -357.41778482 </i>
   <i name="e_0_energy">     -0.00000000 </i>
  </energy>
  <time name="totalsc">   75.76   76.40</time>
  <eigenvalues>
   <array>
    <dimension dim="1">band</dimension>
    <dimension dim="2">kpoint</dimension>
    <dimension dim="3">spin</dimension>
    <field>eigene</field>
    <field>occ</field>
    <set>
     <set comment="spin 1">
      <set comment="kpoint 1">
       <r>  -20.8850    1.0000 </r>
       <r>  -20.8808    1.0000 </r>
       <r>  -16.4353    1.0000 </r>
       <r>  -16.4319    1.0000 </r>
       <r>  -16.3409    1.0000 </r>
       <r>  -16.3374    1.0000 </r>
       <r>  -16.2724    1.0000 </r>
       <r>  -16.2706    1.0000 </r>
       <r>  -16.2694    1.0000 </r>
       <r>  -16.2683    1.0000 </r>
       <r>  -16.2604    1.0000 </r>
       <r>  -16.2584    1.0000 </r>
       <r>  -14.3569    1.0000 </r>
       <r>  -14.0453    1.0000 </r>
       <r>  -13.9940    1.0000 </r>
       <r>  -13.9891    1.0000 </r>
       <r>  -13.7391    1.0000 </r>
       <r>  -13.7258    1.0000 </r>
       <r>   -8.1851    1.0000 </r>
       <r>   -7.3316    1.0000 </r>
       <r>   -7.2929    1.0000 </r>
       <r>   -7.2783    1.0000 </r>
       <r>   -7.2714    1.0000 </r>
       <r>   -7.2643    1.0000 </r>
       <r>   -7.2637    1.0000 </r>
       <r>   -6.4819    1.0000 </r>
       <r>   -3.4077    1.0000 </r>
       <r>   -3.2694    1.0000 </r>
       <r>   -3.2184    1.0000 </r>
       <r>   -1.9165    1.0000 </r>
       <r>   -1.9088    1.0000 </r>
       <r>   -1.8930    1.0000 </r>
       <r>   -1.5224    1.0000 </r>
       <r>   -1.4395    1.0000 </r>
       <r>   -1.4344    1.0000 </r>
       <r>   -1.3623    1.0000 </r>
       <r>   -1.2151    1.0000 </r>
       <r>   -1.2058    1.0000 </r>
       <r>   -1.1561    1.0000 </r>
       <r>   -1.0783    1.0000 </r>
       <r>   -0.9725    1.0000 </r>
       <r>   -0.8956    1.0000 </r>
       <r>   -0.8894    1.0000 </r>
       <r>    0.5372    1.0000 </r>
       <r>    2.7720    0.0000 </r>
       <r>    2.7757    0.0000 </r>
       <r>    2.8642    0.0000 </r>
       <r>    4.7216    0.0000 </r>
       <r>    5.7433    0.0000 </r>
       <r>    6.0756    0.0000 </r>
       <r>    6.2476    0.0000 </r>
       <r>    6.4518    0.0000 </r>
       <r>    6.5020    0.0000 </r>
       <r>    6.5104    0.0000 </r>
       <r>    6.5376    0.0000 </r>
       <r>    6.7820    0.0000 </r>
      </set>
      <set comment="kpoint 2">
       <r>  -20.8838    1.0000 </r>
       <r>  -20.8818    1.0000 </r>
       <r>  -16.4131    1.0000 </r>
       <r>  -16.4096    1.0000 </r>
       <r>  -16.3662    1.0000 </r>
       <r>  -16.3625    1.0000 </r>
       <r>  -16.2721    1.0000 </r>
       <r>  -16.2710    1.0000 </r>
       <r>  -16.2692    1.0000 </r>
       <r>  -16.2685    1.0000 </r>
       <r>  -16.2600    1.0000 </r>
       <r>  -16.2590    1.0000 </r>
       <r>  -14.2765    1.0000 </r>
       <r>  -14.0954    1.0000 </r>
       <r>  -13.9685    1.0000 </r>
       <r>  -13.9245    1.0000 </r>
       <r>  -13.8155    1.0000 </r>
       <r>  -13.7923    1.0000 </r>
       <r>   -7.8433    1.0000 </r>
       <r>   -7.3031    1.0000 </r>
       <r>   -7.2783    1.0000 </r>
       <r>   -7.2676    1.0000 </r>
       <r>   -7.2641    1.0000 </r>
       <r>   -7.2557    1.0000 </r>
       <r>   -7.2501    1.0000 </r>
       <r>   -7.0286    1.0000 </r>
       <r>   -3.0272    1.0000 </r>
       <r>   -2.9320    1.0000 </r>
       <r>   -2.5878    1.0000 </r>
       <r>   -2.1405    1.0000 </r>
       <r>   -2.0786    1.0000 </r>
       <r>   -1.9786    1.0000 </r>
       <r>   -1.7574    1.0000 </r>
       <r>   -1.7361    1.0000 </r>
       <r>   -1.4327    1.0000 </r>
       <r>   -1.4114    1.0000 </r>
       <r>   -1.3928    1.0000 </r>
       <r>   -1.3671    1.0000 </r>
       <r>   -1.2272    1.0000 </r>
       <r>   -1.1403    1.0000 </r>
       <r>   -1.0764    1.0000 </r>
       <r>   -1.0406    1.0000 </r>
       <r>   -0.8670    1.0000 </r>
       <r>   -0.3709    1.0000 </r>
       <r>    3.6888    0.0000 </r>
       <r>    3.8273    0.0000 </r>
       <r>    3.8692    0.0000 </r>
       <r>    5.1073    0.0000 </r>
       <r>    5.4367    0.0000 </r>
       <r>    5.6830    0.0000 </r>
       <r>    5.8858    0.0000 </r>
       <r>    6.2729    0.0000 </r>
       <r>    6.3645    0.0000 </r>
       <r>    6.6396    0.0000 </r>
       <r>    6.6722    0.0000 </r>
       <r>    6.7794    0.0000 </r>
      </set>
      <set comment="kpoint 3">
       <r>  -20.8840    1.0000 </r>
       <r>  -20.8815    1.0000 </r>
       <r>  -16.4349    1.0000 </r>
       <r>  -16.3878    1.0000 </r>
       <r>  -16.3872    1.0000 </r>
       <r>  -16.3410    1.0000 </r>
       <r>  -16.2718    1.0000 </r>
       <r>  -16.2712    1.0000 </r>
       <r>  -16.2696    1.0000 </r>
       <r>  -16.2682    1.0000 </r>
       <r>  -16.2597    1.0000 </r>
       <r>  -16.2591    1.0000 </r>
       <r>  -14.2510    1.0000 </r>
       <r>  -14.0519    1.0000 </r>
       <r>  -14.0051    1.0000 </r>
       <r>  -13.9427    1.0000 </r>
       <r>  -13.9006    1.0000 </r>
       <r>  -13.7293    1.0000 </r>
       <r>   -7.8332    1.0000 </r>
       <r>   -7.2851    1.0000 </r>
       <r>   -7.2741    1.0000 </r>
       <r>   -7.2633    1.0000 </r>
       <r>   -7.2600    1.0000 </r>
       <r>   -7.2563    1.0000 </r>
       <r>   -7.2403    1.0000 </r>
       <r>   -6.9792    1.0000 </r>
       <r>   -3.3353    1.0000 </r>
       <r>   -3.1589    1.0000 </r>
       <r>   -2.6878    1.0000 </r>
       <r>   -2.1518    1.0000 </r>
       <r>   -2.0874    1.0000 </r>
       <r>   -1.7824    1.0000 </r>
       <r>   -1.6945    1.0000 </r>
       <r>   -1.5308    1.0000 </r>
       <r>   -1.4956    1.0000 </r>
       <r>   -1.4058    1.0000 </r>
       <r>   -1.3319    1.0000 </r>
       <r>   -1.2740    1.0000 </r>
       <r>   -1.2525    1.0000 </r>
       <r>   -1.1624    1.0000 </r>
       <r>   -1.1366    1.0000 </r>
       <r>   -0.9590    1.0000 </r>
       <r>   -0.8737    1.0000 </r>
       <r>   -0.0505    1.0000 </r>
       <r>    3.0470    0.0000 </r>
       <r>    3.0929    0.0000 </r>
       <r>    4.3067    0.0000 </r>
       <r>    4.9659    0.0000 </r>
       <r>    5.7931    0.0000 </r>
       <r>    5.9396    0.0000 </r>
       <r>    6.3418    0.0000 </r>
       <r>    6.3451    0.0000 </r>
       <r>    6.6995    0.0000 </r>
       <r>    6.7616    0.0000 </r>
       <r>    6.8380    0.0000 </r>
       <r>    7.0612    0.0000 </r>
      </set>
      <set comment="kpoint 4">
       <r>  -20.8829    1.0000 </r>
       <r>  -20.8825    1.0000 </r>
       <r>  -16.4130    1.0000 </r>
       <r>  -16.4103    1.0000 </r>
       <r>  -16.3662    1.0000 </r>
       <r>  -16.3638    1.0000 </r>
       <r>  -16.2718    1.0000 </r>
       <r>  -16.2713    1.0000 </r>
       <r>  -16.2692    1.0000 </r>
       <r>  -16.2684    1.0000 </r>
       <r>  -16.2598    1.0000 </r>
       <r>  -16.2592    1.0000 </r>
       <r>  -14.1540    1.0000 </r>
       <r>  -14.1323    1.0000 </r>
       <r>  -13.9987    1.0000 </r>
       <r>  -13.9759    1.0000 </r>
       <r>  -13.8216    1.0000 </r>
       <r>  -13.8068    1.0000 </r>
       <r>   -7.4616    1.0000 </r>
       <r>   -7.4285    1.0000 </r>
       <r>   -7.2711    1.0000 </r>
       <r>   -7.2667    1.0000 </r>
       <r>   -7.2615    1.0000 </r>
       <r>   -7.2579    1.0000 </r>
       <r>   -7.2472    1.0000 </r>
       <r>   -7.2300    1.0000 </r>
       <r>   -3.1213    1.0000 </r>
       <r>   -2.9312    1.0000 </r>
       <r>   -2.6743    1.0000 </r>
       <r>   -2.2204    1.0000 </r>
       <r>   -2.1275    1.0000 </r>
       <r>   -1.9444    1.0000 </r>
       <r>   -1.7819    1.0000 </r>
       <r>   -1.5425    1.0000 </r>
       <r>   -1.4297    1.0000 </r>
       <r>   -1.3884    1.0000 </r>
       <r>   -1.3191    1.0000 </r>
       <r>   -1.3183    1.0000 </r>
       <r>   -1.2988    1.0000 </r>
       <r>   -1.2543    1.0000 </r>
       <r>   -1.2205    1.0000 </r>
       <r>   -1.0356    1.0000 </r>
       <r>   -0.6418    1.0000 </r>
       <r>   -0.5913    1.0000 </r>
       <r>    3.4036    0.0000 </r>
       <r>    4.0346    0.0000 </r>
       <r>    4.0889    0.0000 </r>
       <r>    5.0993    0.0000 </r>
       <r>    5.4273    0.0000 </r>
       <r>    5.8801    0.0000 </r>
       <r>    6.4379    0.0000 </r>
       <r>    6.4797    0.0000 </r>
       <r>    6.7020    0.0000 </r>
       <r>    6.7545    0.0000 </r>
       <r>    6.8875    0.0000 </r>
       <r>    7.0999    0.0000 </r>
      </set>
      <set comment="kpoint 5">
       <r>  -20.8843    1.0000 </r>
       <r>  -20.8813    1.0000 </r>
       <r>  -16.4223    1.0000 </r>
       <r>  -16.4190    1.0000 </r>
       <r>  -16.3556    1.0000 </r>
       <r>  -16.3524    1.0000 </r>
       <r>  -16.2722    1.0000 </r>
       <r>  -16.2709    1.0000 </r>
       <r>  -16.2692    1.0000 </r>
       <r>  -16.2685    1.0000 </r>
       <r>  -16.2602    1.0000 </r>
       <r>  -16.2587    1.0000 </r>
       <r>  -14.3158    1.0000 </r>
       <r>  -14.0875    1.0000 </r>
       <r>  -13.9604    1.0000 </r>
       <r>  -13.9570    1.0000 </r>
       <r>  -13.7766    1.0000 </r>
       <r>  -13.7653    1.0000 </r>
       <r>   -7.9944    1.0000 </r>
       <r>   -7.3190    1.0000 </r>
       <r>   -7.2881    1.0000 </r>
       <r>   -7.2657    1.0000 </r>
       <r>   -7.2647    1.0000 </r>
       <r>   -7.2605    1.0000 </r>
       <r>   -7.2512    1.0000 </r>
       <r>   -6.8291    1.0000 </r>
       <r>   -3.1378    1.0000 </r>
       <r>   -3.0376    1.0000 </r>
       <r>   -2.9119    1.0000 </r>
       <r>   -2.0122    1.0000 </r>
       <r>   -1.9558    1.0000 </r>
       <r>   -1.9209    1.0000 </r>
       <r>   -1.7781    1.0000 </r>
       <r>   -1.7728    1.0000 </r>
       <r>   -1.4867    1.0000 </r>
       <r>   -1.3515    1.0000 </r>
       <r>   -1.3124    1.0000 </r>
       <r>   -1.1989    1.0000 </r>
       <r>   -1.1771    1.0000 </r>
       <r>   -1.0749    1.0000 </r>
       <r>   -0.9975    1.0000 </r>
       <r>   -0.9364    1.0000 </r>
       <r>   -0.8921    1.0000 </r>
       <r>   -0.1367    1.0000 </r>
       <r>    3.2927    0.0000 </r>
       <r>    3.3727    0.0000 </r>
       <r>    3.5336    0.0000 </r>
       <r>    5.1084    0.0000 </r>
       <r>    5.6464    0.0000 </r>
       <r>    5.7934    0.0000 </r>
       <r>    6.0078    0.0000 </r>
       <r>    6.1277    0.0000 </r>
       <r>    6.3628    0.0000 </r>
       <r>    6.5712    0.0000 </r>
       <r>    6.7025    0.0000 </r>
       <r>    6.9155    0.0000 </r>
      </set>
      <set comment="kpoint 6">
       <r>  -20.8839    1.0000 </r>
       <r>  -20.8817    1.0000 </r>
       <r>  -16.4312    1.0000 </r>
       <r>  -16.3969    1.0000 </r>
       <r>  -16.3828    1.0000 </r>
       <r>  -16.3401    1.0000 </r>
       <r>  -16.2722    1.0000 </r>
       <r>  -16.2710    1.0000 </r>
       <r>  -16.2691    1.0000 </r>
       <r>  -16.2686    1.0000 </r>
       <r>  -16.2602    1.0000 </r>
       <r>  -16.2588    1.0000 </r>
       <r>  -14.2710    1.0000 </r>
       <r>  -14.0257    1.0000 </r>
       <r>  -14.0069    1.0000 </r>
       <r>  -13.9617    1.0000 </r>
       <r>  -13.8839    1.0000 </r>
       <r>  -13.7272    1.0000 </r>
       <r>   -7.8653    1.0000 </r>
       <r>   -7.3069    1.0000 </r>
       <r>   -7.2763    1.0000 </r>
       <r>   -7.2638    1.0000 </r>
       <r>   -7.2608    1.0000 </r>
       <r>   -7.2573    1.0000 </r>
       <r>   -7.2483    1.0000 </r>
       <r>   -6.9431    1.0000 </r>
       <r>   -3.2521    1.0000 </r>
       <r>   -3.1927    1.0000 </r>
       <r>   -2.5247    1.0000 </r>
       <r>   -2.2930    1.0000 </r>
       <r>   -2.0420    1.0000 </r>
       <r>   -1.7873    1.0000 </r>
       <r>   -1.7756    1.0000 </r>
       <r>   -1.5411    1.0000 </r>
       <r>   -1.4547    1.0000 </r>
       <r>   -1.3676    1.0000 </r>
       <r>   -1.3333    1.0000 </r>
       <r>   -1.2645    1.0000 </r>
       <r>   -1.2279    1.0000 </r>
       <r>   -1.1893    1.0000 </r>
       <r>   -1.1515    1.0000 </r>
       <r>   -1.0800    1.0000 </r>
       <r>   -0.8091    1.0000 </r>
       <r>   -0.0254    1.0000 </r>
       <r>    3.0917    0.0000 </r>
       <r>    3.1552    0.0000 </r>
       <r>    4.6114    0.0000 </r>
       <r>    4.6884    0.0000 </r>
       <r>    5.5301    0.0000 </r>
       <r>    6.1062    0.0000 </r>
       <r>    6.2218    0.0000 </r>
       <r>    6.2459    0.0000 </r>
       <r>    6.3914    0.0000 </r>
       <r>    6.7094    0.0000 </r>
       <r>    6.8388    0.0000 </r>
       <r>    6.9281    0.0000 </r>
      </set>
      <set comment="kpoint 7">
       <r>  -20.8831    1.0000 </r>
       <r>  -20.8823    1.0000 </r>
       <r>  -16.4154    1.0000 </r>
       <r>  -16.3994    1.0000 </r>
       <r>  -16.3751    1.0000 </r>
       <r>  -16.3631    1.0000 </r>
       <r>  -16.2717    1.0000 </r>
       <r>  -16.2714    1.0000 </r>
       <r>  -16.2691    1.0000 </r>
       <r>  -16.2686    1.0000 </r>
       <r>  -16.2596    1.0000 </r>
       <r>  -16.2593    1.0000 </r>
       <r>  -14.2022    1.0000 </r>
       <r>  -14.1144    1.0000 </r>
       <r>  -14.0219    1.0000 </r>
       <r>  -13.9067    1.0000 </r>
       <r>  -13.8243    1.0000 </r>
       <r>  -13.8145    1.0000 </r>
       <r>   -7.5778    1.0000 </r>
       <r>   -7.3401    1.0000 </r>
       <r>   -7.2820    1.0000 </r>
       <r>   -7.2664    1.0000 </r>
       <r>   -7.2597    1.0000 </r>
       <r>   -7.2557    1.0000 </r>
       <r>   -7.2461    1.0000 </r>
       <r>   -7.2339    1.0000 </r>
       <r>   -3.1758    1.0000 </r>
       <r>   -2.7215    1.0000 </r>
       <r>   -2.5355    1.0000 </r>
       <r>   -2.3772    1.0000 </r>
       <r>   -2.1435    1.0000 </r>
       <r>   -1.9952    1.0000 </r>
       <r>   -1.6968    1.0000 </r>
       <r>   -1.6667    1.0000 </r>
       <r>   -1.4782    1.0000 </r>
       <r>   -1.4293    1.0000 </r>
       <r>   -1.3720    1.0000 </r>
       <r>   -1.3029    1.0000 </r>
       <r>   -1.2527    1.0000 </r>
       <r>   -1.1470    1.0000 </r>
       <r>   -1.1310    1.0000 </r>
       <r>   -1.0698    1.0000 </r>
       <r>   -0.7875    1.0000 </r>
       <r>   -0.4832    1.0000 </r>
       <r>    3.3209    0.0000 </r>
       <r>    4.3430    0.0000 </r>
       <r>    4.4492    0.0000 </r>
       <r>    4.8635    0.0000 </r>
       <r>    4.9335    0.0000 </r>
       <r>    5.8848    0.0000 </r>
       <r>    6.1819    0.0000 </r>
       <r>    6.4430    0.0000 </r>
       <r>    6.6631    0.0000 </r>
       <r>    6.7474    0.0000 </r>
       <r>    6.8164    0.0000 </r>
       <r>    6.9249    0.0000 </r>
      </set>
      <set comment="kpoint 8">
       <r>  -20.8840    1.0000 </r>
       <r>  -20.8815    1.0000 </r>
       <r>  -16.4222    1.0000 </r>
       <r>  -16.4056    1.0000 </r>
       <r>  -16.3670    1.0000 </r>
       <r>  -16.3557    1.0000 </r>
       <r>  -16.2720    1.0000 </r>
       <r>  -16.2710    1.0000 </r>
       <r>  -16.2693    1.0000 </r>
       <r>  -16.2685    1.0000 </r>
       <r>  -16.2599    1.0000 </r>
       <r>  -16.2589    1.0000 </r>
       <r>  -14.2902    1.0000 </r>
       <r>  -14.1076    1.0000 </r>
       <r>  -13.9603    1.0000 </r>
       <r>  -13.9268    1.0000 </r>
       <r>  -13.8101    1.0000 </r>
       <r>  -13.7735    1.0000 </r>
       <r>   -7.8931    1.0000 </r>
       <r>   -7.3107    1.0000 </r>
       <r>   -7.2838    1.0000 </r>
       <r>   -7.2637    1.0000 </r>
       <r>   -7.2625    1.0000 </r>
       <r>   -7.2574    1.0000 </r>
       <r>   -7.2464    1.0000 </r>
       <r>   -6.9720    1.0000 </r>
       <r>   -3.0847    1.0000 </r>
       <r>   -3.0177    1.0000 </r>
       <r>   -2.6092    1.0000 </r>
       <r>   -2.2265    1.0000 </r>
       <r>   -2.0295    1.0000 </r>
       <r>   -1.9712    1.0000 </r>
       <r>   -1.7732    1.0000 </r>
       <r>   -1.7115    1.0000 </r>
       <r>   -1.4770    1.0000 </r>
       <r>   -1.4107    1.0000 </r>
       <r>   -1.3749    1.0000 </r>
       <r>   -1.2008    1.0000 </r>
       <r>   -1.1692    1.0000 </r>
       <r>   -1.0964    1.0000 </r>
       <r>   -1.0251    1.0000 </r>
       <r>   -0.9296    1.0000 </r>
       <r>   -0.9293    1.0000 </r>
       <r>   -0.3315    1.0000 </r>
       <r>    3.3820    0.0000 </r>
       <r>    3.5256    0.0000 </r>
       <r>    4.0695    0.0000 </r>
       <r>    5.0843    0.0000 </r>
       <r>    5.4944    0.0000 </r>
       <r>    5.5572    0.0000 </r>
       <r>    6.0413    0.0000 </r>
       <r>    6.1087    0.0000 </r>
       <r>    6.4902    0.0000 </r>
       <r>    6.5972    0.0000 </r>
       <r>    6.7419    0.0000 </r>
       <r>    6.9923    0.0000 </r>
      </set>
      <set comment="kpoint 9">
       <r>  -20.8829    1.0000 </r>
       <r>  -20.8825    1.0000 </r>
       <r>  -16.4133    1.0000 </r>
       <r>  -16.4101    1.0000 </r>
       <r>  -16.3665    1.0000 </r>
       <r>  -16.3633    1.0000 </r>
       <r>  -16.2718    1.0000 </r>
       <r>  -16.2713    1.0000 </r>
       <r>  -16.2691    1.0000 </r>
       <r>  -16.2686    1.0000 </r>
       <r>  -16.2597    1.0000 </r>
       <r>  -16.2592    1.0000 </r>
       <r>  -14.1595    1.0000 </r>
       <r>  -14.1313    1.0000 </r>
       <r>  -14.0238    1.0000 </r>
       <r>  -13.9458    1.0000 </r>
       <r>  -13.8342    1.0000 </r>
       <r>  -13.7932    1.0000 </r>
       <r>   -7.4608    1.0000 </r>
       <r>   -7.4364    1.0000 </r>
       <r>   -7.2821    1.0000 </r>
       <r>   -7.2653    1.0000 </r>
       <r>   -7.2584    1.0000 </r>
       <r>   -7.2536    1.0000 </r>
       <r>   -7.2490    1.0000 </r>
       <r>   -7.2267    1.0000 </r>
       <r>   -3.1463    1.0000 </r>
       <r>   -2.9448    1.0000 </r>
       <r>   -2.6383    1.0000 </r>
       <r>   -2.2761    1.0000 </r>
       <r>   -2.0611    1.0000 </r>
       <r>   -2.0033    1.0000 </r>
       <r>   -1.6963    1.0000 </r>
       <r>   -1.6194    1.0000 </r>
       <r>   -1.4396    1.0000 </r>
       <r>   -1.3874    1.0000 </r>
       <r>   -1.3676    1.0000 </r>
       <r>   -1.3270    1.0000 </r>
       <r>   -1.2927    1.0000 </r>
       <r>   -1.1830    1.0000 </r>
       <r>   -1.1385    1.0000 </r>
       <r>   -1.0574    1.0000 </r>
       <r>   -0.6566    1.0000 </r>
       <r>   -0.5412    1.0000 </r>
       <r>    3.4068    0.0000 </r>
       <r>    3.8017    0.0000 </r>
       <r>    4.3259    0.0000 </r>
       <r>    4.9870    0.0000 </r>
       <r>    5.4845    0.0000 </r>
       <r>    5.8632    0.0000 </r>
       <r>    6.3167    0.0000 </r>
       <r>    6.4736    0.0000 </r>
       <r>    6.7250    0.0000 </r>
       <r>    6.7891    0.0000 </r>
       <r>    6.8980    0.0000 </r>
       <r>    7.0060    0.0000 </r>
      </set>
      <set comment="kpoint 10">
       <r>  -20.8834    1.0000 </r>
       <r>  -20.8821    1.0000 </r>
       <r>  -16.4220    1.0000 </r>
       <r>  -16.4063    1.0000 </r>
       <r>  -16.3686    1.0000 </r>
       <r>  -16.3558    1.0000 </r>
       <r>  -16.2718    1.0000 </r>
       <r>  -16.2713    1.0000 </r>
       <r>  -16.2695    1.0000 </r>
       <r>  -16.2685    1.0000 </r>
       <r>  -16.2598    1.0000 </r>
       <r>  -16.2592    1.0000 </r>
       <r>  -14.1644    1.0000 </r>
       <r>  -14.1397    1.0000 </r>
       <r>  -13.9904    1.0000 </r>
       <r>  -13.9689    1.0000 </r>
       <r>  -13.8585    1.0000 </r>
       <r>  -13.7658    1.0000 </r>
       <r>   -7.5795    1.0000 </r>
       <r>   -7.3251    1.0000 </r>
       <r>   -7.2805    1.0000 </r>
       <r>   -7.2724    1.0000 </r>
       <r>   -7.2578    1.0000 </r>
       <r>   -7.2506    1.0000 </r>
       <r>   -7.2300    1.0000 </r>
       <r>   -7.2179    1.0000 </r>
       <r>   -3.0810    1.0000 </r>
       <r>   -2.9813    1.0000 </r>
       <r>   -2.9601    1.0000 </r>
       <r>   -2.1236    1.0000 </r>
       <r>   -2.0869    1.0000 </r>
       <r>   -2.0041    1.0000 </r>
       <r>   -1.6751    1.0000 </r>
       <r>   -1.5153    1.0000 </r>
       <r>   -1.4819    1.0000 </r>
       <r>   -1.4118    1.0000 </r>
       <r>   -1.3418    1.0000 </r>
       <r>   -1.3137    1.0000 </r>
       <r>   -1.2493    1.0000 </r>
       <r>   -1.1998    1.0000 </r>
       <r>   -1.1494    1.0000 </r>
       <r>   -0.9148    1.0000 </r>
       <r>   -0.6881    1.0000 </r>
       <r>   -0.5196    1.0000 </r>
       <r>    3.4661    0.0000 </r>
       <r>    3.6530    0.0000 </r>
       <r>    3.8028    0.0000 </r>
       <r>    5.3711    0.0000 </r>
       <r>    5.6953    0.0000 </r>
       <r>    5.7862    0.0000 </r>
       <r>    6.3226    0.0000 </r>
       <r>    6.5291    0.0000 </r>
       <r>    6.7238    0.0000 </r>
       <r>    6.7704    0.0000 </r>
       <r>    7.0995    0.0000 </r>
       <r>    7.1192    0.0000 </r>
      </set>
      <set comment="kpoint 11">
       <r>  -20.8832    1.0000 </r>
       <r>  -20.8823    1.0000 </r>
       <r>  -16.3900    1.0000 </r>
       <r>  -16.3899    1.0000 </r>
       <r>  -16.3866    1.0000 </r>
       <r>  -16.3866    1.0000 </r>
       <r>  -16.2717    1.0000 </r>
       <r>  -16.2714    1.0000 </r>
       <r>  -16.2690    1.0000 </r>
       <r>  -16.2689    1.0000 </r>
       <r>  -16.2597    1.0000 </r>
       <r>  -16.2594    1.0000 </r>
       <r>  -14.2111    1.0000 </r>
       <r>  -14.2039    1.0000 </r>
       <r>  -13.8736    1.0000 </r>
       <r>  -13.8702    1.0000 </r>
       <r>  -13.8604    1.0000 </r>
       <r>  -13.8554    1.0000 </r>
       <r>   -7.5036    1.0000 </r>
       <r>   -7.4821    1.0000 </r>
       <r>   -7.2954    1.0000 </r>
       <r>   -7.2821    1.0000 </r>
       <r>   -7.2615    1.0000 </r>
       <r>   -7.2603    1.0000 </r>
       <r>   -7.2417    1.0000 </r>
       <r>   -7.2220    1.0000 </r>
       <r>   -2.6300    1.0000 </r>
       <r>   -2.5844    1.0000 </r>
       <r>   -2.5705    1.0000 </r>
       <r>   -2.5154    1.0000 </r>
       <r>   -2.2438    1.0000 </r>
       <r>   -2.2110    1.0000 </r>
       <r>   -1.6372    1.0000 </r>
       <r>   -1.6306    1.0000 </r>
       <r>   -1.6097    1.0000 </r>
       <r>   -1.5768    1.0000 </r>
       <r>   -1.3334    1.0000 </r>
       <r>   -1.2909    1.0000 </r>
       <r>   -1.1188    1.0000 </r>
       <r>   -1.0808    1.0000 </r>
       <r>   -1.0429    1.0000 </r>
       <r>   -0.9940    1.0000 </r>
       <r>   -0.8861    1.0000 </r>
       <r>   -0.8381    1.0000 </r>
       <r>    4.3724    0.0000 </r>
       <r>    4.5263    0.0000 </r>
       <r>    4.5540    0.0000 </r>
       <r>    4.5844    0.0000 </r>
       <r>    4.7959    0.0000 </r>
       <r>    4.8113    0.0000 </r>
       <r>    5.9380    0.0000 </r>
       <r>    6.2098    0.0000 </r>
       <r>    6.6436    0.0000 </r>
       <r>    6.6544    0.0000 </r>
       <r>    6.6988    0.0000 </r>
       <r>    6.8681    0.0000 </r>
      </set>
      <set comment="kpoint 12">
       <r>  -20.8832    1.0000 </r>
       <r>  -20.8822    1.0000 </r>
       <r>  -16.4266    1.0000 </r>
       <r>  -16.4038    1.0000 </r>
       <r>  -16.3769    1.0000 </r>
       <r>  -16.3452    1.0000 </r>
       <r>  -16.2720    1.0000 </r>
       <r>  -16.2712    1.0000 </r>
       <r>  -16.2689    1.0000 </r>
       <r>  -16.2688    1.0000 </r>
       <r>  -16.2600    1.0000 </r>
       <r>  -16.2589    1.0000 </r>
       <r>  -14.1923    1.0000 </r>
       <r>  -14.0813    1.0000 </r>
       <r>  -13.9946    1.0000 </r>
       <r>  -13.9807    1.0000 </r>
       <r>  -13.9007    1.0000 </r>
       <r>  -13.7377    1.0000 </r>
       <r>   -7.6532    1.0000 </r>
       <r>   -7.2996    1.0000 </r>
       <r>   -7.2757    1.0000 </r>
       <r>   -7.2675    1.0000 </r>
       <r>   -7.2572    1.0000 </r>
       <r>   -7.2523    1.0000 </r>
       <r>   -7.2462    1.0000 </r>
       <r>   -7.1446    1.0000 </r>
       <r>   -3.1516    1.0000 </r>
       <r>   -3.0870    1.0000 </r>
       <r>   -2.9919    1.0000 </r>
       <r>   -2.1022    1.0000 </r>
       <r>   -1.9815    1.0000 </r>
       <r>   -1.8622    1.0000 </r>
       <r>   -1.7137    1.0000 </r>
       <r>   -1.5479    1.0000 </r>
       <r>   -1.5301    1.0000 </r>
       <r>   -1.3670    1.0000 </r>
       <r>   -1.3244    1.0000 </r>
       <r>   -1.2967    1.0000 </r>
       <r>   -1.2451    1.0000 </r>
       <r>   -1.2193    1.0000 </r>
       <r>   -1.1768    1.0000 </r>
       <r>   -1.0162    1.0000 </r>
       <r>   -0.6797    1.0000 </r>
       <r>   -0.2629    1.0000 </r>
       <r>    3.3686    0.0000 </r>
       <r>    3.4159    0.0000 </r>
       <r>    3.7465    0.0000 </r>
       <r>    5.5516    0.0000 </r>
       <r>    5.8566    0.0000 </r>
       <r>    5.9063    0.0000 </r>
       <r>    6.0705    0.0000 </r>
       <r>    6.5123    0.0000 </r>
       <r>    6.6384    0.0000 </r>
       <r>    6.6757    0.0000 </r>
       <r>    6.9452    0.0000 </r>
       <r>    7.1184    0.0000 </r>
      </set>
      <set comment="kpoint 13">
       <r>  -20.8834    1.0000 </r>
       <r>  -20.8821    1.0000 </r>
       <r>  -16.4133    1.0000 </r>
       <r>  -16.3901    1.0000 </r>
       <r>  -16.3897    1.0000 </r>
       <r>  -16.3593    1.0000 </r>
       <r>  -16.2720    1.0000 </r>
       <r>  -16.2711    1.0000 </r>
       <r>  -16.2690    1.0000 </r>
       <r>  -16.2690    1.0000 </r>
       <r>  -16.2600    1.0000 </r>
       <r>  -16.2589    1.0000 </r>
       <r>  -14.2481    1.0000 </r>
       <r>  -14.1348    1.0000 </r>
       <r>  -13.9687    1.0000 </r>
       <r>  -13.8738    1.0000 </r>
       <r>  -13.8602    1.0000 </r>
       <r>  -13.7902    1.0000 </r>
       <r>   -7.6906    1.0000 </r>
       <r>   -7.3162    1.0000 </r>
       <r>   -7.2901    1.0000 </r>
       <r>   -7.2826    1.0000 </r>
       <r>   -7.2610    1.0000 </r>
       <r>   -7.2549    1.0000 </r>
       <r>   -7.2455    1.0000 </r>
       <r>   -7.1666    1.0000 </r>
       <r>   -3.0901    1.0000 </r>
       <r>   -2.6008    1.0000 </r>
       <r>   -2.4800    1.0000 </r>
       <r>   -2.3832    1.0000 </r>
       <r>   -2.3149    1.0000 </r>
       <r>   -2.0677    1.0000 </r>
       <r>   -1.7168    1.0000 </r>
       <r>   -1.6904    1.0000 </r>
       <r>   -1.6178    1.0000 </r>
       <r>   -1.3975    1.0000 </r>
       <r>   -1.3057    1.0000 </r>
       <r>   -1.2425    1.0000 </r>
       <r>   -1.2056    1.0000 </r>
       <r>   -1.0711    1.0000 </r>
       <r>   -1.0469    1.0000 </r>
       <r>   -0.9939    1.0000 </r>
       <r>   -0.8649    1.0000 </r>
       <r>   -0.5528    1.0000 </r>
       <r>    3.4100    0.0000 </r>
       <r>    4.2997    0.0000 </r>
       <r>    4.6490    0.0000 </r>
       <r>    4.6543    0.0000 </r>
       <r>    4.9326    0.0000 </r>
       <r>    5.6704    0.0000 </r>
       <r>    5.9136    0.0000 </r>
       <r>    6.1445    0.0000 </r>
       <r>    6.6508    0.0000 </r>
       <r>    6.7208    0.0000 </r>
       <r>    6.8303    0.0000 </r>
       <r>    6.9964    0.0000 </r>
      </set>
      <set comment="kpoint 14">
       <r>  -20.8829    1.0000 </r>
       <r>  -20.8825    1.0000 </r>
       <r>  -16.4120    1.0000 </r>
       <r>  -16.4116    1.0000 </r>
       <r>  -16.3649    1.0000 </r>
       <r>  -16.3645    1.0000 </r>
       <r>  -16.2717    1.0000 </r>
       <r>  -16.2713    1.0000 </r>
       <r>  -16.2689    1.0000 </r>
       <r>  -16.2688    1.0000 </r>
       <r>  -16.2596    1.0000 </r>
       <r>  -16.2593    1.0000 </r>
       <r>  -14.1569    1.0000 </r>
       <r>  -14.1481    1.0000 </r>
       <r>  -13.9909    1.0000 </r>
       <r>  -13.9770    1.0000 </r>
       <r>  -13.8094    1.0000 </r>
       <r>  -13.8041    1.0000 </r>
       <r>   -7.4601    1.0000 </r>
       <r>   -7.4454    1.0000 </r>
       <r>   -7.2806    1.0000 </r>
       <r>   -7.2653    1.0000 </r>
       <r>   -7.2643    1.0000 </r>
       <r>   -7.2544    1.0000 </r>
       <r>   -7.2415    1.0000 </r>
       <r>   -7.2280    1.0000 </r>
       <r>   -3.0910    1.0000 </r>
       <r>   -3.0764    1.0000 </r>
       <r>   -2.5066    1.0000 </r>
       <r>   -2.3923    1.0000 </r>
       <r>   -2.0115    1.0000 </r>
       <r>   -2.0107    1.0000 </r>
       <r>   -1.6844    1.0000 </r>
       <r>   -1.6384    1.0000 </r>
       <r>   -1.5156    1.0000 </r>
       <r>   -1.3763    1.0000 </r>
       <r>   -1.3422    1.0000 </r>
       <r>   -1.2853    1.0000 </r>
       <r>   -1.2269    1.0000 </r>
       <r>   -1.1901    1.0000 </r>
       <r>   -1.1135    1.0000 </r>
       <r>   -1.0868    1.0000 </r>
       <r>   -0.5865    1.0000 </r>
       <r>   -0.5792    1.0000 </r>
       <r>    3.5085    0.0000 </r>
       <r>    3.5487    0.0000 </r>
       <r>    4.6556    0.0000 </r>
       <r>    4.6776    0.0000 </r>
       <r>    5.7047    0.0000 </r>
       <r>    5.7644    0.0000 </r>
       <r>    6.1899    0.0000 </r>
       <r>    6.4603    0.0000 </r>
       <r>    6.6907    0.0000 </r>
       <r>    6.7126    0.0000 </r>
       <r>    6.8957    0.0000 </r>
       <r>    6.9374    0.0000 </r>
      </set>
     </set>
    </set>
   </array>
  </eigenvalues>
  <separator name="orbital magnetization" >
   <v name="MAGDIPOLOUT">      0.00000000      0.00000000      0.00000000</v>
  </separator>
  <dos>
   <i name="efermi">      0.63858181 </i>
   <total>
    <array>
     <dimension dim="1">gridpoints</dimension>
     <dimension dim="2">spin</dimension>
     <field>energy</field>
     <field>total</field>
     <field>integrated</field>
     <set>
      <set comment="spin 1">
       <r>   -22.2852     0.0000     0.0000 </r>
       <r>   -22.1825     0.0000     0.0000 </r>
       <r>   -22.0798     0.0000     0.0000 </r>
       <r>   -21.9771     0.0000     0.0000 </r>
       <r>   -21.8744     0.0000     0.0000 </r>
       <r>   -21.7717     0.0000     0.0000 </r>
       <r>   -21.6691     0.0000     0.0000 </r>
       <r>   -21.5664     0.0000     0.0000 </r>
       <r>   -21.4637     0.0000     0.0000 </r>
       <r>   -21.3610     0.0000     0.0000 </r>
       <r>   -21.2583     0.0000     0.0000 </r>
       <r>   -21.1557     0.0000     0.0000 </r>
       <r>   -21.0530     0.0000     0.0000 </r>
       <r>   -20.9503     0.0000     0.0000 </r>
       <r>   -20.8476    38.9552     4.0000 </r>
       <r>   -20.7449     0.0000     4.0000 </r>
       <r>   -20.6422     0.0000     4.0000 </r>
       <r>   -20.5396     0.0000     4.0000 </r>
       <r>   -20.4369     0.0000     4.0000 </r>
       <r>   -20.3342     0.0000     4.0000 </r>
       <r>   -20.2315     0.0000     4.0000 </r>
       <r>   -20.1288     0.0000     4.0000 </r>
       <r>   -20.0262     0.0000     4.0000 </r>
       <r>   -19.9235     0.0000     4.0000 </r>
       <r>   -19.8208     0.0000     4.0000 </r>
       <r>   -19.7181     0.0000     4.0000 </r>
       <r>   -19.6154     0.0000     4.0000 </r>
       <r>   -19.5127     0.0000     4.0000 </r>
       <r>   -19.4101     0.0000     4.0000 </r>
       <r>   -19.3074     0.0000     4.0000 </r>
       <r>   -19.2047     0.0000     4.0000 </r>
       <r>   -19.1020     0.0000     4.0000 </r>
       <r>   -18.9993     0.0000     4.0000 </r>
       <r>   -18.8967     0.0000     4.0000 </r>
       <r>   -18.7940     0.0000     4.0000 </r>
       <r>   -18.6913     0.0000     4.0000 </r>
       <r>   -18.5886     0.0000     4.0000 </r>
       <r>   -18.4859     0.0000     4.0000 </r>
       <r>   -18.3832     0.0000     4.0000 </r>
       <r>   -18.2806     0.0000     4.0000 </r>
       <r>   -18.1779     0.0000     4.0000 </r>
       <r>   -18.0752     0.0000     4.0000 </r>
       <r>   -17.9725     0.0000     4.0000 </r>
       <r>   -17.8698     0.0000     4.0000 </r>
       <r>   -17.7672     0.0000     4.0000 </r>
       <r>   -17.6645     0.0000     4.0000 </r>
       <r>   -17.5618     0.0000     4.0000 </r>
       <r>   -17.4591     0.0000     4.0000 </r>
       <r>   -17.3564     0.0000     4.0000 </r>
       <r>   -17.2537     0.0000     4.0000 </r>
       <r>   -17.1511     0.0000     4.0000 </r>
       <r>   -17.0484     0.0000     4.0000 </r>
       <r>   -16.9457     0.0000     4.0000 </r>
       <r>   -16.8430     0.0000     4.0000 </r>
       <r>   -16.7403     0.0000     4.0000 </r>
       <r>   -16.6377     0.0000     4.0000 </r>
       <r>   -16.5350     0.0000     4.0000 </r>
       <r>   -16.4323     3.0490     4.3131 </r>
       <r>   -16.3296    52.6832    11.9653 </r>
       <r>   -16.2269   116.8657    24.0000 </r>
       <r>   -16.1242     0.0000    24.0000 </r>
       <r>   -16.0216     0.0000    24.0000 </r>
       <r>   -15.9189     0.0000    24.0000 </r>
       <r>   -15.8162     0.0000    24.0000 </r>
       <r>   -15.7135     0.0000    24.0000 </r>
       <r>   -15.6108     0.0000    24.0000 </r>
       <r>   -15.5082     0.0000    24.0000 </r>
       <r>   -15.4055     0.0000    24.0000 </r>
       <r>   -15.3028     0.0000    24.0000 </r>
       <r>   -15.2001     0.0000    24.0000 </r>
       <r>   -15.0974     0.0000    24.0000 </r>
       <r>   -14.9947     0.0000    24.0000 </r>
       <r>   -14.8921     0.0000    24.0000 </r>
       <r>   -14.7894     0.0000    24.0000 </r>
       <r>   -14.6867     0.0000    24.0000 </r>
       <r>   -14.5840     0.0000    24.0000 </r>
       <r>   -14.4813     0.0000    24.0000 </r>
       <r>   -14.3787     0.0006    24.0001 </r>
       <r>   -14.2760     3.8117    24.4469 </r>
       <r>   -14.1733     7.7500    25.5180 </r>
       <r>   -14.0706    15.0047    27.5963 </r>
       <r>   -13.9679    23.9000    30.1763 </r>
       <r>   -13.8652    14.3575    32.5854 </r>
       <r>   -13.7626    22.9841    35.2489 </r>
       <r>   -13.6599     6.4918    36.0000 </r>
       <r>   -13.5572     0.0000    36.0000 </r>
       <r>   -13.4545     0.0000    36.0000 </r>
       <r>   -13.3518     0.0000    36.0000 </r>
       <r>   -13.2491     0.0000    36.0000 </r>
       <r>   -13.1465     0.0000    36.0000 </r>
       <r>   -13.0438     0.0000    36.0000 </r>
       <r>   -12.9411     0.0000    36.0000 </r>
       <r>   -12.8384     0.0000    36.0000 </r>
       <r>   -12.7357     0.0000    36.0000 </r>
       <r>   -12.6331     0.0000    36.0000 </r>
       <r>   -12.5304     0.0000    36.0000 </r>
       <r>   -12.4277     0.0000    36.0000 </r>
       <r>   -12.3250     0.0000    36.0000 </r>
       <r>   -12.2223     0.0000    36.0000 </r>
       <r>   -12.1196     0.0000    36.0000 </r>
       <r>   -12.0170     0.0000    36.0000 </r>
       <r>   -11.9143     0.0000    36.0000 </r>
       <r>   -11.8116     0.0000    36.0000 </r>
       <r>   -11.7089     0.0000    36.0000 </r>
       <r>   -11.6062     0.0000    36.0000 </r>
       <r>   -11.5036     0.0000    36.0000 </r>
       <r>   -11.4009     0.0000    36.0000 </r>
       <r>   -11.2982     0.0000    36.0000 </r>
       <r>   -11.1955     0.0000    36.0000 </r>
       <r>   -11.0928     0.0000    36.0000 </r>
       <r>   -10.9901     0.0000    36.0000 </r>
       <r>   -10.8875     0.0000    36.0000 </r>
       <r>   -10.7848     0.0000    36.0000 </r>
       <r>   -10.6821     0.0000    36.0000 </r>
       <r>   -10.5794     0.0000    36.0000 </r>
       <r>   -10.4767     0.0000    36.0000 </r>
       <r>   -10.3741     0.0000    36.0000 </r>
       <r>   -10.2714     0.0000    36.0000 </r>
       <r>   -10.1687     0.0000    36.0000 </r>
       <r>   -10.0660     0.0000    36.0000 </r>
       <r>    -9.9633     0.0000    36.0000 </r>
       <r>    -9.8606     0.0000    36.0000 </r>
       <r>    -9.7580     0.0000    36.0000 </r>
       <r>    -9.6553     0.0000    36.0000 </r>
       <r>    -9.5526     0.0000    36.0000 </r>
       <r>    -9.4499     0.0000    36.0000 </r>
       <r>    -9.3472     0.0000    36.0000 </r>
       <r>    -9.2446     0.0000    36.0000 </r>
       <r>    -9.1419     0.0000    36.0000 </r>
       <r>    -9.0392     0.0000    36.0000 </r>
       <r>    -8.9365     0.0000    36.0000 </r>
       <r>    -8.8338     0.0000    36.0000 </r>
       <r>    -8.7311     0.0000    36.0000 </r>
       <r>    -8.6285     0.0000    36.0000 </r>
       <r>    -8.5258     0.0000    36.0000 </r>
       <r>    -8.4231     0.0000    36.0000 </r>
       <r>    -8.3204     0.0000    36.0000 </r>
       <r>    -8.2177     0.0000    36.0000 </r>
       <r>    -8.1151     0.5410    36.0556 </r>
       <r>    -8.0124     0.0059    36.0562 </r>
       <r>    -7.9097     0.0101    36.1677 </r>
       <r>    -7.8070     5.4103    36.8333 </r>
       <r>    -7.7043     0.0286    36.8363 </r>
       <r>    -7.6016     2.1659    37.1668 </r>
       <r>    -7.4990     2.5699    37.5417 </r>
       <r>    -7.3963     8.6567    38.5000 </r>
       <r>    -7.2936    14.6510    40.0044 </r>
       <r>    -7.1909    82.2381    50.8334 </r>
       <r>    -7.0882     3.2460    51.1667 </r>
       <r>    -6.9856     2.3930    51.4124 </r>
       <r>    -6.8829     2.1642    51.8333 </r>
       <r>    -6.7802     1.0821    51.9444 </r>
       <r>    -6.6775     0.0000    51.9444 </r>
       <r>    -6.5748     0.0000    51.9444 </r>
       <r>    -6.4721     0.4956    51.9953 </r>
       <r>    -6.3695     0.0000    52.0000 </r>
       <r>    -6.2668     0.0000    52.0000 </r>
       <r>    -6.1641     0.0000    52.0000 </r>
       <r>    -6.0614     0.0000    52.0000 </r>
       <r>    -5.9587     0.0000    52.0000 </r>
       <r>    -5.8561     0.0000    52.0000 </r>
       <r>    -5.7534     0.0000    52.0000 </r>
       <r>    -5.6507     0.0000    52.0000 </r>
       <r>    -5.5480     0.0000    52.0000 </r>
       <r>    -5.4453     0.0000    52.0000 </r>
       <r>    -5.3426     0.0000    52.0000 </r>
       <r>    -5.2400     0.0000    52.0000 </r>
       <r>    -5.1373     0.0000    52.0000 </r>
       <r>    -5.0346     0.0000    52.0000 </r>
       <r>    -4.9319     0.0000    52.0000 </r>
       <r>    -4.8292     0.0000    52.0000 </r>
       <r>    -4.7265     0.0000    52.0000 </r>
       <r>    -4.6239     0.0000    52.0000 </r>
       <r>    -4.5212     0.0000    52.0000 </r>
       <r>    -4.4185     0.0000    52.0000 </r>
       <r>    -4.3158     0.0000    52.0000 </r>
       <r>    -4.2131     0.0000    52.0000 </r>
       <r>    -4.1105     0.0000    52.0000 </r>
       <r>    -4.0078     0.0000    52.0000 </r>
       <r>    -3.9051     0.0000    52.0000 </r>
       <r>    -3.8024     0.0000    52.0000 </r>
       <r>    -3.6997     0.0000    52.0000 </r>
       <r>    -3.5970     0.0000    52.0000 </r>
       <r>    -3.4944     0.0000    52.0000 </r>
       <r>    -3.3917     0.5346    52.0549 </r>
       <r>    -3.2890     1.0836    52.1668 </r>
       <r>    -3.1863     4.6243    52.6971 </r>
       <r>    -3.0836    12.0217    54.1789 </r>
       <r>    -2.9810     6.9257    55.2111 </r>
       <r>    -2.8783     6.4925    56.0556 </r>
       <r>    -2.7756     0.0000    56.0556 </r>
       <r>    -2.6729     3.8518    56.4511 </r>
       <r>    -2.5702     7.8279    57.3038 </r>
       <r>    -2.4675     6.9907    58.0511 </r>
       <r>    -2.3649     4.2342    58.4903 </r>
       <r>    -2.2622     5.3592    59.0503 </r>
       <r>    -2.1595     2.8873    59.4076 </r>
       <r>    -2.0568    11.2854    61.1032 </r>
       <r>    -1.9541    15.8738    63.0189 </r>
       <r>    -1.8515     4.7285    63.6522 </r>
       <r>    -1.7488    11.7424    64.8724 </r>
       <r>    -1.6461    15.3600    66.6883 </r>
       <r>    -1.5434     7.3187    67.6404 </r>
       <r>    -1.4407    12.5016    69.5615 </r>
       <r>    -1.3380    29.0992    73.2657 </r>
       <r>    -1.2354    24.6926    76.8133 </r>
       <r>    -1.1327    26.8149    80.4756 </r>
       <r>    -1.0300    18.8503    82.8245 </r>
       <r>    -0.9273     6.6805    83.8526 </r>
       <r>    -0.8246     7.5899    84.8349 </r>
       <r>    -0.7220     2.1642    85.2778 </r>
       <r>    -0.6193     6.4918    85.9444 </r>
       <r>    -0.5166     7.2139    86.6852 </r>
       <r>    -0.4139     2.1642    86.9444 </r>
       <r>    -0.3112     3.2440    87.2775 </r>
       <r>    -0.2085     2.1642    87.5000 </r>
       <r>    -0.1059     1.0821    87.6111 </r>
       <r>    -0.0032     3.2445    87.9443 </r>
       <r>     0.0995     0.0000    87.9444 </r>
       <r>     0.2022     0.0000    87.9444 </r>
       <r>     0.3049     0.0000    87.9444 </r>
       <r>     0.4075     0.0000    87.9444 </r>
       <r>     0.5102     0.0000    87.9444 </r>
       <r>     0.6129     0.5410    88.0000 </r>
       <r>     0.7156     0.0000    88.0000 </r>
       <r>     0.8183     0.0000    88.0000 </r>
       <r>     0.9210     0.0000    88.0000 </r>
       <r>     1.0236     0.0000    88.0000 </r>
       <r>     1.1263     0.0000    88.0000 </r>
       <r>     1.2290     0.0000    88.0000 </r>
       <r>     1.3317     0.0000    88.0000 </r>
       <r>     1.4344     0.0000    88.0000 </r>
       <r>     1.5370     0.0000    88.0000 </r>
       <r>     1.6397     0.0000    88.0000 </r>
       <r>     1.7424     0.0000    88.0000 </r>
       <r>     1.8451     0.0000    88.0000 </r>
       <r>     1.9478     0.0000    88.0000 </r>
       <r>     2.0505     0.0000    88.0000 </r>
       <r>     2.1531     0.0000    88.0000 </r>
       <r>     2.2558     0.0000    88.0000 </r>
       <r>     2.3585     0.0000    88.0000 </r>
       <r>     2.4612     0.0000    88.0000 </r>
       <r>     2.5639     0.0000    88.0000 </r>
       <r>     2.6665     0.0000    88.0000 </r>
       <r>     2.7692     0.2844    88.0292 </r>
       <r>     2.8719     0.4658    88.1589 </r>
       <r>     2.9746     0.0000    88.1667 </r>
       <r>     3.0773     1.1412    88.2838 </r>
       <r>     3.1800     2.1637    88.8333 </r>
       <r>     3.2826     0.0836    88.8419 </r>
       <r>     3.3853     6.0975    89.5705 </r>
       <r>     3.4880     4.3290    90.3890 </r>
       <r>     3.5907     3.2463    90.8333 </r>
       <r>     3.6934     2.6905    91.1096 </r>
       <r>     3.7961     2.8097    91.4552 </r>
       <r>     3.8987     4.3283    92.1667 </r>
       <r>     4.0014     0.0000    92.1667 </r>
       <r>     4.1041     3.2293    92.4983 </r>
       <r>     4.2068     0.0000    92.5000 </r>
       <r>     4.3095     1.7152    92.6761 </r>
       <r>     4.4121     2.7052    93.2222 </r>
       <r>     4.5148     2.1926    93.4474 </r>
       <r>     4.6175     2.8277    93.7904 </r>
       <r>     4.7202     6.7204    94.5234 </r>
       <r>     4.8229     1.0545    94.6638 </r>
       <r>     4.9256     2.6161    94.9353 </r>
       <r>     5.0282     3.2463    95.5556 </r>
       <r>     5.1309     5.4088    96.1109 </r>
       <r>     5.2336     0.0000    96.1111 </r>
       <r>     5.3363     0.0000    96.1111 </r>
       <r>     5.4390     3.4705    96.4675 </r>
       <r>     5.5416     5.4846    97.1187 </r>
       <r>     5.6443     0.4163    97.4872 </r>
       <r>     5.7470     5.7961    98.1507 </r>
       <r>     5.8497     3.6589    98.6535 </r>
       <r>     5.9524    10.2302   100.1060 </r>
       <r>     6.0551     2.1691   100.3338 </r>
       <r>     6.1577     5.3783   101.1634 </r>
       <r>     6.2604     8.6778   102.0578 </r>
       <r>     6.3631     6.8809   102.9843 </r>
       <r>     6.4658     7.1015   103.8959 </r>
       <r>     6.5685     6.3299   104.8722 </r>
       <r>     6.6711    10.9740   106.0713 </r>
       <r>     6.7738    18.0338   108.3517 </r>
       <r>     6.8765     7.0428   109.5565 </r>
       <r>     6.9792     8.6997   110.8933 </r>
       <r>     7.0819     3.2570   111.4456 </r>
       <r>     7.1846     3.2463   112.0000 </r>
       <r>     7.2872     0.0000   112.0000 </r>
       <r>     7.3899     0.0000   112.0000 </r>
       <r>     7.4926     0.0000   112.0000 </r>
       <r>     7.5953     0.0000   112.0000 </r>
       <r>     7.6980     0.0000   112.0000 </r>
       <r>     7.8006     0.0000   112.0000 </r>
       <r>     7.9033     0.0000   112.0000 </r>
       <r>     8.0060     0.0000   112.0000 </r>
       <r>     8.1087     0.0000   112.0000 </r>
       <r>     8.2114     0.0000   112.0000 </r>
       <r>     8.3141     0.0000   112.0000 </r>
       <r>     8.4167     0.0000   112.0000 </r>
       <r>     8.5194     0.0000   112.0000 </r>
      </set>
     </set>
    </array>
   </total>
   <partial>
    <array>
     <dimension dim="1">gridpoints</dimension>
     <dimension dim="2">spin</dimension>
     <dimension dim="3">ion</dimension>
     <field>energy</field>
     <field>  s  </field>
     <field>  p  </field>
     <field>  d  </field>
     <set>
      <set comment="ion 1">
       <set comment="spin 1">
        <r>   -22.2852     0.0000     0.0000     0.0000 </r>
        <r>   -22.1825     0.0000     0.0000     0.0000 </r>
        <r>   -22.0798     0.0000     0.0000     0.0000 </r>
        <r>   -21.9771     0.0000     0.0000     0.0000 </r>
        <r>   -21.8744     0.0000     0.0000     0.0000 </r>
        <r>   -21.7717     0.0000     0.0000     0.0000 </r>
        <r>   -21.6691     0.0000     0.0000     0.0000 </r>
        <r>   -21.5664     0.0000     0.0000     0.0000 </r>
        <r>   -21.4637     0.0000     0.0000     0.0000 </r>
        <r>   -21.3610     0.0000     0.0000     0.0000 </r>
        <r>   -21.2583     0.0000     0.0000     0.0000 </r>
        <r>   -21.1557     0.0000     0.0000     0.0000 </r>
        <r>   -21.0530     0.0000     0.0000     0.0000 </r>
        <r>   -20.9503     0.0000     0.0000     0.0000 </r>
        <r>   -20.8476    17.2889     0.0000     0.0000 </r>
        <r>   -20.7449     0.0000     0.0000     0.0000 </r>
        <r>   -20.6422     0.0000     0.0000     0.0000 </r>
        <r>   -20.5396     0.0000     0.0000     0.0000 </r>
        <r>   -20.4369     0.0000     0.0000     0.0000 </r>
        <r>   -20.3342     0.0000     0.0000     0.0000 </r>
        <r>   -20.2315     0.0000     0.0000     0.0000 </r>
        <r>   -20.1288     0.0000     0.0000     0.0000 </r>
        <r>   -20.0262     0.0000     0.0000     0.0000 </r>
        <r>   -19.9235     0.0000     0.0000     0.0000 </r>
        <r>   -19.8208     0.0000     0.0000     0.0000 </r>
        <r>   -19.7181     0.0000     0.0000     0.0000 </r>
        <r>   -19.6154     0.0000     0.0000     0.0000 </r>
        <r>   -19.5127     0.0000     0.0000     0.0000 </r>
        <r>   -19.4101     0.0000     0.0000     0.0000 </r>
        <r>   -19.3074     0.0000     0.0000     0.0000 </r>
        <r>   -19.2047     0.0000     0.0000     0.0000 </r>
        <r>   -19.1020     0.0000     0.0000     0.0000 </r>
        <r>   -18.9993     0.0000     0.0000     0.0000 </r>
        <r>   -18.8967     0.0000     0.0000     0.0000 </r>
        <r>   -18.7940     0.0000     0.0000     0.0000 </r>
        <r>   -18.6913     0.0000     0.0000     0.0000 </r>
        <r>   -18.5886     0.0000     0.0000     0.0000 </r>
        <r>   -18.4859     0.0000     0.0000     0.0000 </r>
        <r>   -18.3832     0.0000     0.0000     0.0000 </r>
        <r>   -18.2806     0.0000     0.0000     0.0000 </r>
        <r>   -18.1779     0.0000     0.0000     0.0000 </r>
        <r>   -18.0752     0.0000     0.0000     0.0000 </r>
        <r>   -17.9725     0.0000     0.0000     0.0000 </r>
        <r>   -17.8698     0.0000     0.0000     0.0000 </r>
        <r>   -17.7672     0.0000     0.0000     0.0000 </r>
        <r>   -17.6645     0.0000     0.0000     0.0000 </r>
        <r>   -17.5618     0.0000     0.0000     0.0000 </r>
        <r>   -17.4591     0.0000     0.0000     0.0000 </r>
        <r>   -17.3564     0.0000     0.0000     0.0000 </r>
        <r>   -17.2537     0.0000     0.0000     0.0000 </r>
        <r>   -17.1511     0.0000     0.0000     0.0000 </r>
        <r>   -17.0484     0.0000     0.0000     0.0000 </r>
        <r>   -16.9457     0.0000     0.0000     0.0000 </r>
        <r>   -16.8430     0.0000     0.0000     0.0000 </r>
        <r>   -16.7403     0.0000     0.0000     0.0000 </r>
        <r>   -16.6377     0.0000     0.0000     0.0000 </r>
        <r>   -16.5350     0.0000     0.0000     0.0000 </r>
        <r>   -16.4323     0.0000     0.0000     0.0000 </r>
        <r>   -16.3296     0.0000     0.0001     0.0000 </r>
        <r>   -16.2269     0.0000     0.0000     0.0000 </r>
        <r>   -16.1242     0.0000     0.0000     0.0000 </r>
        <r>   -16.0216     0.0000     0.0000     0.0000 </r>
        <r>   -15.9189     0.0000     0.0000     0.0000 </r>
        <r>   -15.8162     0.0000     0.0000     0.0000 </r>
        <r>   -15.7135     0.0000     0.0000     0.0000 </r>
        <r>   -15.6108     0.0000     0.0000     0.0000 </r>
        <r>   -15.5082     0.0000     0.0000     0.0000 </r>
        <r>   -15.4055     0.0000     0.0000     0.0000 </r>
        <r>   -15.3028     0.0000     0.0000     0.0000 </r>
        <r>   -15.2001     0.0000     0.0000     0.0000 </r>
        <r>   -15.0974     0.0000     0.0000     0.0000 </r>
        <r>   -14.9947     0.0000     0.0000     0.0000 </r>
        <r>   -14.8921     0.0000     0.0000     0.0000 </r>
        <r>   -14.7894     0.0000     0.0000     0.0000 </r>
        <r>   -14.6867     0.0000     0.0000     0.0000 </r>
        <r>   -14.5840     0.0000     0.0000     0.0000 </r>
        <r>   -14.4813     0.0000     0.0000     0.0000 </r>
        <r>   -14.3787     0.0000     0.0000     0.0000 </r>
        <r>   -14.2760     0.0016     0.0006     0.0000 </r>
        <r>   -14.1733     0.0014     0.0024     0.0001 </r>
        <r>   -14.0706     0.0007     0.0045     0.0002 </r>
        <r>   -13.9679     0.0018     0.0050     0.0004 </r>
        <r>   -13.8652     0.0005     0.0027     0.0003 </r>
        <r>   -13.7626     0.0012     0.0029     0.0004 </r>
        <r>   -13.6599     0.0006     0.0007     0.0001 </r>
        <r>   -13.5572     0.0000     0.0000     0.0000 </r>
        <r>   -13.4545     0.0000     0.0000     0.0000 </r>
        <r>   -13.3518     0.0000     0.0000     0.0000 </r>
        <r>   -13.2491     0.0000     0.0000     0.0000 </r>
        <r>   -13.1465     0.0000     0.0000     0.0000 </r>
        <r>   -13.0438     0.0000     0.0000     0.0000 </r>
        <r>   -12.9411     0.0000     0.0000     0.0000 </r>
        <r>   -12.8384     0.0000     0.0000     0.0000 </r>
        <r>   -12.7357     0.0000     0.0000     0.0000 </r>
        <r>   -12.6331     0.0000     0.0000     0.0000 </r>
        <r>   -12.5304     0.0000     0.0000     0.0000 </r>
        <r>   -12.4277     0.0000     0.0000     0.0000 </r>
        <r>   -12.3250     0.0000     0.0000     0.0000 </r>
        <r>   -12.2223     0.0000     0.0000     0.0000 </r>
        <r>   -12.1196     0.0000     0.0000     0.0000 </r>
        <r>   -12.0170     0.0000     0.0000     0.0000 </r>
        <r>   -11.9143     0.0000     0.0000     0.0000 </r>
        <r>   -11.8116     0.0000     0.0000     0.0000 </r>
        <r>   -11.7089     0.0000     0.0000     0.0000 </r>
        <r>   -11.6062     0.0000     0.0000     0.0000 </r>
        <r>   -11.5036     0.0000     0.0000     0.0000 </r>
        <r>   -11.4009     0.0000     0.0000     0.0000 </r>
        <r>   -11.2982     0.0000     0.0000     0.0000 </r>
        <r>   -11.1955     0.0000     0.0000     0.0000 </r>
[...]
       <set comment="band 16">
        <r>  0.0001  0.0001  0.0000 </r>
        <r>  0.0001  0.0001  0.0000 </r>
        <r>  0.0016  0.0017  0.0028 </r>
        <r>  0.0000  0.0016  0.0087 </r>
        <r>  0.1659  0.0000  0.0000 </r>
        <r>  0.1659  0.0000  0.0000 </r>
        <r>  0.1659  0.0000  0.0000 </r>
        <r>  0.1659  0.0000  0.0000 </r>
        <r>  0.0615  0.0000  0.0000 </r>
        <r>  0.0615  0.0000  0.0000 </r>
       </set>
       <set comment="band 17">
        <r>  0.0001  0.0001  0.0000 </r>
        <r>  0.0001  0.0001  0.0000 </r>
        <r>  0.0000  0.0011  0.0153 </r>
        <r>  0.0005  0.0001  0.0278 </r>
        <r>  0.1000  0.0000  0.0000 </r>
        <r>  0.1000  0.0000  0.0000 </r>
        <r>  0.1000  0.0000  0.0000 </r>
        <r>  0.1000  0.0000  0.0000 </r>
        <r>  0.1878  0.0001  0.0000 </r>
        <r>  0.1878  0.0001  0.0000 </r>
       </set>
       <set comment="band 18">
        <r>  0.0001  0.0000  0.0000 </r>
        <r>  0.0001  0.0000  0.0000 </r>
        <r>  0.0005  0.0001  0.0279 </r>
        <r>  0.0000  0.0011  0.0151 </r>
        <r>  0.0990  0.0000  0.0000 </r>
        <r>  0.0990  0.0000  0.0000 </r>
        <r>  0.0990  0.0000  0.0000 </r>
        <r>  0.0990  0.0000  0.0000 </r>
        <r>  0.1902  0.0001  0.0000 </r>
        <r>  0.1902  0.0001  0.0000 </r>
       </set>
       <set comment="band 19">
        <r>  0.0000  0.0450  0.0000 </r>
        <r>  0.0000  0.0450  0.0000 </r>
        <r>  0.5285  0.0000  0.0000 </r>
        <r>  0.0000  0.0015  0.0009 </r>
        <r>  0.0051  0.0107  0.0003 </r>
        <r>  0.0051  0.0107  0.0003 </r>
        <r>  0.0051  0.0107  0.0003 </r>
        <r>  0.0051  0.0107  0.0003 </r>
        <r>  0.0040  0.0121  0.0003 </r>
        <r>  0.0040  0.0121  0.0003 </r>
       </set>
       <set comment="band 20">
        <r>  0.0000  0.0231  0.0000 </r>
        <r>  0.0000  0.0231  0.0000 </r>
        <r>  0.0000  0.0016  0.0010 </r>
        <r>  0.5651  0.0000  0.0000 </r>
        <r>  0.0054  0.0113  0.0004 </r>
        <r>  0.0054  0.0113  0.0004 </r>
        <r>  0.0054  0.0113  0.0004 </r>
        <r>  0.0054  0.0113  0.0004 </r>
        <r>  0.0051  0.0127  0.0003 </r>
        <r>  0.0051  0.0127  0.0003 </r>
       </set>
       <set comment="band 21">
        <r>  0.0000  0.3686  0.0000 </r>
        <r>  0.0000  0.3686  0.0000 </r>
        <r>  0.0264  0.0000  0.0000 </r>
        <r>  0.0000  0.0001  0.0001 </r>
        <r>  0.0006  0.0013  0.0000 </r>
        <r>  0.0006  0.0013  0.0000 </r>
        <r>  0.0006  0.0013  0.0000 </r>
        <r>  0.0006  0.0013  0.0000 </r>
        <r>  0.0002  0.0004  0.0000 </r>
        <r>  0.0002  0.0004  0.0000 </r>
       </set>
       <set comment="band 22">
        <r>  0.0000  0.3852  0.0000 </r>
        <r>  0.0000  0.3852  0.0000 </r>
        <r>  0.0005  0.0000  0.0000 </r>
        <r>  0.0000  0.0000  0.0000 </r>
        <r>  0.0001  0.0005  0.0000 </r>
        <r>  0.0001  0.0005  0.0000 </r>
        <r>  0.0001  0.0005  0.0000 </r>
        <r>  0.0001  0.0005  0.0000 </r>
        <r>  0.0002  0.0003  0.0000 </r>
        <r>  0.0002  0.0003  0.0000 </r>
       </set>
       <set comment="band 23">
        <r>  0.0000  0.3782  0.0000 </r>
        <r>  0.0000  0.3782  0.0000 </r>
        <r>  0.0000  0.0000  0.0000 </r>
        <r>  0.0112  0.0000  0.0000 </r>
        <r>  0.0007  0.0007  0.0000 </r>
        <r>  0.0007  0.0007  0.0000 </r>
        <r>  0.0007  0.0007  0.0000 </r>
        <r>  0.0007  0.0007  0.0000 </r>
        <r>  0.0000  0.0006  0.0000 </r>
        <r>  0.0000  0.0006  0.0000 </r>
       </set>
       <set comment="band 24">
        <r>  0.0000  0.3839  0.0000 </r>
        <r>  0.0000  0.3839  0.0000 </r>
        <r>  0.0000  0.0000  0.0000 </r>
        <r>  0.0048  0.0000  0.0000 </r>
        <r>  0.0004  0.0005  0.0000 </r>
        <r>  0.0004  0.0005  0.0000 </r>
        <r>  0.0004  0.0005  0.0000 </r>
        <r>  0.0004  0.0005  0.0000 </r>
        <r>  0.0001  0.0001  0.0000 </r>
        <r>  0.0001  0.0001  0.0000 </r>
       </set>
       <set comment="band 25">
        <r>  0.0000  0.3715  0.0000 </r>
        <r>  0.0000  0.3715  0.0000 </r>
        <r>  0.0000  0.0001  0.0001 </r>
        <r>  0.0191  0.0000  0.0000 </r>
        <r>  0.0010  0.0009  0.0000 </r>
        <r>  0.0010  0.0009  0.0000 </r>
        <r>  0.0010  0.0009  0.0000 </r>
        <r>  0.0010  0.0009  0.0000 </r>
        <r>  0.0018  0.0009  0.0000 </r>
        <r>  0.0018  0.0009  0.0000 </r>
       </set>
       <set comment="band 26">
        <r>  0.0000  0.3552  0.0000 </r>
        <r>  0.0000  0.3552  0.0000 </r>
        <r>  0.0449  0.0000  0.0000 </r>
        <r>  0.0000  0.0002  0.0001 </r>
        <r>  0.0015  0.0014  0.0000 </r>
        <r>  0.0015  0.0014  0.0000 </r>
        <r>  0.0015  0.0014  0.0000 </r>
        <r>  0.0015  0.0014  0.0000 </r>
        <r>  0.0021  0.0015  0.0000 </r>
        <r>  0.0021  0.0015  0.0000 </r>
       </set>
       <set comment="band 27">
        <r>  0.0000  0.0002  0.0002 </r>
        <r>  0.0000  0.0002  0.0002 </r>
        <r>  0.0000  0.0480  0.0006 </r>
        <r>  0.0023  0.0449  0.0006 </r>
        <r>  0.0002  0.0995  0.0001 </r>
        <r>  0.0002  0.0995  0.0001 </r>
        <r>  0.0002  0.0995  0.0001 </r>
        <r>  0.0002  0.0995  0.0001 </r>
        <r>  0.0001  0.0208  0.0001 </r>
        <r>  0.0001  0.0208  0.0001 </r>
       </set>
       <set comment="band 28">
        <r>  0.0000  0.0010  0.0001 </r>
        <r>  0.0000  0.0010  0.0001 </r>
        <r>  0.0029  0.0477  0.0002 </r>
        <r>  0.0000  0.0455  0.0010 </r>
        <r>  0.0003  0.1029  0.0002 </r>
        <r>  0.0003  0.1029  0.0002 </r>
        <r>  0.0003  0.1029  0.0002 </r>
        <r>  0.0003  0.1029  0.0002 </r>
        <r>  0.0001  0.0142  0.0001 </r>
        <r>  0.0001  0.0142  0.0001 </r>
       </set>
       <set comment="band 29">
        <r>  0.0002  0.0021  0.0002 </r>
        <r>  0.0002  0.0021  0.0002 </r>
        <r>  0.0105  0.0006  0.0056 </r>
        <r>  0.0000  0.0614  0.0007 </r>
        <r>  0.0001  0.0394  0.0001 </r>
        <r>  0.0001  0.0394  0.0001 </r>
        <r>  0.0001  0.0394  0.0001 </r>
        <r>  0.0001  0.0394  0.0001 </r>
        <r>  0.0023  0.1520  0.0003 </r>
        <r>  0.0023  0.1520  0.0003 </r>
       </set>
       <set comment="band 30">
        <r>  0.0000  0.0009  0.0003 </r>
        <r>  0.0000  0.0009  0.0003 </r>
        <r>  0.0000  0.0654  0.0012 </r>
        <r>  0.0134  0.0027  0.0060 </r>
        <r>  0.0001  0.0356  0.0001 </r>
        <r>  0.0001  0.0356  0.0001 </r>
        <r>  0.0001  0.0356  0.0001 </r>
        <r>  0.0001  0.0356  0.0001 </r>
        <r>  0.0024  0.1639  0.0004 </r>
        <r>  0.0024  0.1639  0.0004 </r>
       </set>
       <set comment="band 31">
        <r>  0.0018  0.0001  0.0002 </r>
        <r>  0.0018  0.0001  0.0002 </r>
        <r>  0.0000  0.0059  0.0015 </r>
        <r>  0.0033  0.0081  0.0015 </r>
        <r>  0.0011  0.0803  0.0001 </r>
        <r>  0.0011  0.0803  0.0001 </r>
        <r>  0.0011  0.0803  0.0001 </r>
        <r>  0.0011  0.0803  0.0001 </r>
        <r>  0.0002  0.0870  0.0000 </r>
        <r>  0.0002  0.0870  0.0000 </r>
       </set>
       <set comment="band 32">
        <r>  0.0015  0.0015  0.0003 </r>
        <r>  0.0015  0.0015  0.0003 </r>
        <r>  0.0020  0.0052  0.0025 </r>
        <r>  0.0000  0.0072  0.0013 </r>
        <r>  0.0011  0.0598  0.0000 </r>
        <r>  0.0011  0.0598  0.0000 </r>
        <r>  0.0011  0.0598  0.0000 </r>
        <r>  0.0011  0.0598  0.0000 </r>
        <r>  0.0000  0.1285  0.0000 </r>
        <r>  0.0000  0.1285  0.0000 </r>
       </set>
       <set comment="band 33">
        <r>  0.0000  0.0054  0.0009 </r>
        <r>  0.0000  0.0054  0.0009 </r>
        <r>  0.0000  0.0047  0.0014 </r>
        <r>  0.0021  0.0034  0.0024 </r>
        <r>  0.0002  0.1078  0.0001 </r>
        <r>  0.0002  0.1078  0.0001 </r>
        <r>  0.0002  0.1078  0.0001 </r>
        <r>  0.0002  0.1078  0.0001 </r>
        <r>  0.0000  0.0525  0.0001 </r>
        <r>  0.0000  0.0525  0.0001 </r>
       </set>
       <set comment="band 34">
        <r>  0.0000  0.0074  0.0009 </r>
        <r>  0.0000  0.0074  0.0009 </r>
        <r>  0.0023  0.0024  0.0024 </r>
        <r>  0.0000  0.0035  0.0005 </r>
        <r>  0.0002  0.1191  0.0001 </r>
        <r>  0.0002  0.1191  0.0001 </r>
        <r>  0.0002  0.1191  0.0001 </r>
        <r>  0.0002  0.1191  0.0001 </r>
        <r>  0.0001  0.0327  0.0000 </r>
        <r>  0.0001  0.0327  0.0000 </r>
       </set>
       <set comment="band 35">
        <r>  0.0002  0.0056  0.0008 </r>
        <r>  0.0002  0.0056  0.0008 </r>
        <r>  0.0000  0.0019  0.0004 </r>
        <r>  0.0032  0.0012  0.0021 </r>
        <r>  0.0001  0.1173  0.0001 </r>
        <r>  0.0001  0.1173  0.0001 </r>
        <r>  0.0001  0.1173  0.0001 </r>
        <r>  0.0001  0.1173  0.0001 </r>
        <r>  0.0001  0.0428  0.0000 </r>
        <r>  0.0001  0.0428  0.0000 </r>
       </set>
       <set comment="band 36">
        <r>  0.0002  0.0018  0.0004 </r>
        <r>  0.0002  0.0018  0.0004 </r>
        <r>  0.0002  0.0003  0.0039 </r>
        <r>  0.0000  0.0027  0.0023 </r>
        <r>  0.0000  0.0723  0.0000 </r>
        <r>  0.0000  0.0723  0.0000 </r>
        <r>  0.0000  0.0723  0.0000 </r>
        <r>  0.0000  0.0723  0.0000 </r>
        <r>  0.0000  0.1487  0.0000 </r>
        <r>  0.0000  0.1487  0.0000 </r>
       </set>
       <set comment="band 37">
        <r>  0.0000  0.0028  0.0008 </r>
        <r>  0.0000  0.0028  0.0008 </r>
        <r>  0.0047  0.0019  0.0014 </r>
        <r>  0.0000  0.0072  0.0003 </r>
        <r>  0.0003  0.1313  0.0001 </r>
        <r>  0.0003  0.1313  0.0001 </r>
        <r>  0.0003  0.1313  0.0001 </r>
        <r>  0.0003  0.1313  0.0001 </r>
        <r>  0.0001  0.0216  0.0001 </r>
        <r>  0.0001  0.0216  0.0001 </r>
       </set>
       <set comment="band 38">
        <r>  0.0000  0.0023  0.0010 </r>
        <r>  0.0000  0.0023  0.0010 </r>
        <r>  0.0000  0.0028  0.0003 </r>
        <r>  0.0001  0.0000  0.0012 </r>
        <r>  0.0001  0.0692  0.0001 </r>
        <r>  0.0001  0.0692  0.0001 </r>
        <r>  0.0001  0.0692  0.0001 </r>
        <r>  0.0001  0.0692  0.0001 </r>
        <r>  0.0000  0.1538  0.0000 </r>
        <r>  0.0000  0.1538  0.0000 </r>
       </set>
       <set comment="band 39">
        <r>  0.0001  0.0025  0.0006 </r>
        <r>  0.0001  0.0025  0.0006 </r>
        <r>  0.0000  0.0014  0.0004 </r>
        <r>  0.0000  0.0001  0.0021 </r>
        <r>  0.0000  0.0997  0.0000 </r>
        <r>  0.0000  0.0997  0.0000 </r>
        <r>  0.0000  0.0997  0.0000 </r>
        <r>  0.0000  0.0997  0.0000 </r>
        <r>  0.0000  0.0998  0.0000 </r>
        <r>  0.0000  0.0998  0.0000 </r>
       </set>
       <set comment="band 40">
        <r>  0.0000  0.0027  0.0008 </r>
        <r>  0.0000  0.0027  0.0008 </r>
        <r>  0.0035  0.0006  0.0005 </r>
        <r>  0.0000  0.0002  0.0004 </r>
        <r>  0.0000  0.0774  0.0000 </r>
        <r>  0.0000  0.0774  0.0000 </r>
        <r>  0.0000  0.0774  0.0000 </r>
        <r>  0.0000  0.0774  0.0000 </r>
        <r>  0.0001  0.1418  0.0000 </r>
        <r>  0.0001  0.1418  0.0000 </r>
       </set>
       <set comment="band 41">
        <r>  0.0001  0.0046  0.0003 </r>
        <r>  0.0001  0.0046  0.0003 </r>
        <r>  0.0081  0.0016  0.0005 </r>
        <r>  0.0000  0.0047  0.0032 </r>
        <r>  0.0001  0.1046  0.0001 </r>
        <r>  0.0001  0.1046  0.0001 </r>
        <r>  0.0001  0.1046  0.0001 </r>
        <r>  0.0001  0.1046  0.0001 </r>
        <r>  0.0001  0.0889  0.0001 </r>
        <r>  0.0001  0.0889  0.0001 </r>
       </set>
       <set comment="band 42">
        <r>  0.0001  0.0029  0.0004 </r>
        <r>  0.0001  0.0029  0.0004 </r>
        <r>  0.0000  0.0010  0.0034 </r>
        <r>  0.0027  0.0001  0.0014 </r>
        <r>  0.0000  0.0887  0.0000 </r>
        <r>  0.0000  0.0887  0.0000 </r>
        <r>  0.0000  0.0887  0.0000 </r>
        <r>  0.0000  0.0887  0.0000 </r>
        <r>  0.0000  0.1275  0.0001 </r>
        <r>  0.0000  0.1275  0.0001 </r>
       </set>
       <set comment="band 43">
        <r>  0.0001  0.0008  0.0001 </r>
        <r>  0.0001  0.0008  0.0001 </r>
        <r>  0.1230  0.0012  0.0005 </r>
        <r>  0.0000  0.0120  0.0057 </r>
        <r>  0.0003  0.1022  0.0004 </r>
        <r>  0.0003  0.1022  0.0004 </r>
        <r>  0.0003  0.1022  0.0004 </r>
        <r>  0.0003  0.1022  0.0004 </r>
        <r>  0.0010  0.0651  0.0004 </r>
        <r>  0.0010  0.0651  0.0004 </r>
       </set>
       <set comment="band 44">
        <r>  0.0000  0.0004  0.0002 </r>
        <r>  0.0000  0.0004  0.0002 </r>
        <r>  0.0000  0.0130  0.0064 </r>
        <r>  0.1308  0.0018  0.0002 </r>
        <r>  0.0005  0.1090  0.0004 </r>
        <r>  0.0005  0.1090  0.0004 </r>
        <r>  0.0005  0.1090  0.0004 </r>
        <r>  0.0005  0.1090  0.0004 </r>
        <r>  0.0005  0.0484  0.0005 </r>
        <r>  0.0005  0.0484  0.0005 </r>
       </set>
       <set comment="band 45">
        <r>  0.0000  0.0007  0.0007 </r>
        <r>  0.0000  0.0007  0.0007 </r>
        <r>  0.0039  0.2143  0.0003 </r>
        <r>  0.0000  0.1583  0.0016 </r>
        <r>  0.0087  0.0142  0.0053 </r>
        <r>  0.0087  0.0142  0.0053 </r>
        <r>  0.0087  0.0142  0.0053 </r>
        <r>  0.0087  0.0142  0.0053 </r>
        <r>  0.0005  0.0102  0.0023 </r>
        <r>  0.0005  0.0102  0.0023 </r>
       </set>
       <set comment="band 46">
        <r>  0.0000  0.0005  0.0002 </r>
        <r>  0.0000  0.0005  0.0002 </r>
        <r>  0.0000  0.1714  0.0010 </r>
        <r>  0.0023  0.2110  0.0009 </r>
        <r>  0.0082  0.0142  0.0055 </r>
        <r>  0.0082  0.0142  0.0055 </r>
        <r>  0.0082  0.0142  0.0055 </r>
        <r>  0.0082  0.0142  0.0055 </r>
        <r>  0.0010  0.0120  0.0020 </r>
        <r>  0.0010  0.0120  0.0020 </r>
       </set>
       <set comment="band 47">
        <r>  0.0001  0.0002  0.0005 </r>
        <r>  0.0001  0.0002  0.0005 </r>
        <r>  0.0088  0.0000  0.0056 </r>
        <r>  0.0000  0.3364  0.0001 </r>
        <r>  0.0005  0.0068  0.0028 </r>
        <r>  0.0005  0.0068  0.0028 </r>
        <r>  0.0005  0.0068  0.0028 </r>
        <r>  0.0005  0.0068  0.0028 </r>
        <r>  0.0101  0.0632  0.0065 </r>
        <r>  0.0101  0.0632  0.0065 </r>
       </set>
       <set comment="band 48">
        <r>  0.0005  0.0009  0.0013 </r>
        <r>  0.0005  0.0009  0.0013 </r>
        <r>  0.0000  0.3132  0.0001 </r>
        <r>  0.0113  0.0019  0.0041 </r>
        <r>  0.0009  0.0093  0.0026 </r>
        <r>  0.0009  0.0093  0.0026 </r>
        <r>  0.0009  0.0093  0.0026 </r>
        <r>  0.0009  0.0093  0.0026 </r>
        <r>  0.0122  0.0610  0.0046 </r>
        <r>  0.0122  0.0610  0.0046 </r>
       </set>
       <set comment="band 49">
        <r>  0.0000  0.0007  0.0044 </r>
        <r>  0.0000  0.0007  0.0044 </r>
        <r>  0.0052  0.1165  0.0009 </r>
        <r>  0.0000  0.1716  0.0014 </r>
        <r>  0.0020  0.0481  0.0034 </r>
        <r>  0.0020  0.0481  0.0034 </r>
        <r>  0.0020  0.0481  0.0034 </r>
        <r>  0.0020  0.0481  0.0034 </r>
        <r>  0.0008  0.0049  0.0045 </r>
        <r>  0.0008  0.0049  0.0045 </r>
       </set>
       <set comment="band 50">
        <r>  0.0004  0.0004  0.0004 </r>
        <r>  0.0004  0.0004  0.0004 </r>
        <r>  0.0000  0.1874  0.0011 </r>
        <r>  0.0026  0.1242  0.0015 </r>
        <r>  0.0013  0.0524  0.0039 </r>
        <r>  0.0013  0.0524  0.0039 </r>
        <r>  0.0013  0.0524  0.0039 </r>
        <r>  0.0013  0.0524  0.0039 </r>
        <r>  0.0003  0.0041  0.0042 </r>
        <r>  0.0003  0.0041  0.0042 </r>
       </set>
       <set comment="band 51">
        <r>  0.0126  0.0037  0.0312 </r>
        <r>  0.0126  0.0037  0.0312 </r>
        <r>  0.0001  0.0061  0.0004 </r>
        <r>  0.0000  0.0065  0.0001 </r>
        <r>  0.0039  0.0083  0.0054 </r>
        <r>  0.0039  0.0083  0.0054 </r>
        <r>  0.0039  0.0083  0.0054 </r>
        <r>  0.0039  0.0083  0.0054 </r>
        <r>  0.0000  0.0032  0.0007 </r>
        <r>  0.0000  0.0032  0.0007 </r>
       </set>
       <set comment="band 52">
        <r>  0.0107  0.0076  0.0254 </r>
        <r>  0.0107  0.0076  0.0254 </r>
        <r>  0.0000  0.0215  0.0008 </r>
        <r>  0.0004  0.0017  0.0001 </r>
        <r>  0.0041  0.0109  0.0032 </r>
        <r>  0.0041  0.0109  0.0032 </r>
        <r>  0.0041  0.0109  0.0032 </r>
        <r>  0.0041  0.0109  0.0032 </r>
        <r>  0.0020  0.0113  0.0030 </r>
        <r>  0.0020  0.0113  0.0030 </r>
       </set>
       <set comment="band 53">
        <r>  0.0011  0.0054  0.0591 </r>
        <r>  0.0011  0.0054  0.0591 </r>
        <r>  0.0010  0.0059  0.0023 </r>
        <r>  0.0000  0.0105  0.0004 </r>
        <r>  0.0023  0.0042  0.0035 </r>
        <r>  0.0023  0.0042  0.0035 </r>
        <r>  0.0023  0.0042  0.0035 </r>
        <r>  0.0023  0.0042  0.0035 </r>
        <r>  0.0028  0.0036  0.0086 </r>
        <r>  0.0028  0.0036  0.0086 </r>
       </set>
       <set comment="band 54">
        <r>  0.0026  0.0008  0.0653 </r>
        <r>  0.0026  0.0008  0.0653 </r>
        <r>  0.0000  0.0137  0.0020 </r>
        <r>  0.0000  0.0098  0.0010 </r>
        <r>  0.0019  0.0014  0.0047 </r>
        <r>  0.0019  0.0014  0.0047 </r>
        <r>  0.0019  0.0014  0.0047 </r>
        <r>  0.0019  0.0014  0.0047 </r>
        <r>  0.0008  0.0083  0.0060 </r>
        <r>  0.0008  0.0083  0.0060 </r>
       </set>
       <set comment="band 55">
        <r>  0.0005  0.0052  0.0621 </r>
        <r>  0.0005  0.0052  0.0623 </r>
        <r>  0.0000  0.0002  0.0008 </r>
        <r>  0.0000  0.0166  0.0014 </r>
        <r>  0.0016  0.0057  0.0061 </r>
        <r>  0.0016  0.0057  0.0061 </r>
        <r>  0.0016  0.0056  0.0061 </r>
        <r>  0.0016  0.0056  0.0061 </r>
        <r>  0.0002  0.0135  0.0024 </r>
        <r>  0.0002  0.0135  0.0024 </r>
       </set>
       <set comment="band 56">
        <r>  0.0006  0.0096  0.0585 </r>
        <r>  0.0006  0.0096  0.0585 </r>
        <r>  0.0000  0.0046  0.0009 </r>
        <r>  0.0000  0.0088  0.0007 </r>
        <r>  0.0013  0.0060  0.0046 </r>
        <r>  0.0013  0.0061  0.0046 </r>
        <r>  0.0013  0.0060  0.0046 </r>
        <r>  0.0013  0.0061  0.0046 </r>
        <r>  0.0018  0.0102  0.0038 </r>
        <r>  0.0018  0.0101  0.0038 </r>
       </set>
      </set>
     </set>
    </set>
   </array>
  </projected>
 </calculation>
 <structure name="finalpos" >
  <crystal>
   <varray name="basis" >
    <v>       5.82532652       5.89125710      -0.08608885 </v>
    <v>       5.82532652       0.08608885      -5.89125710 </v>
    <v>      -0.00000000       5.97734594      -5.97734594 </v>
   </varray>
   <i name="volume">    404.27182251 </i>
   <varray name="rec_basis" >
    <v>       0.08583210       0.08613015       0.08613015 </v>
    <v>       0.08583210      -0.08613015      -0.08613015 </v>
    <v>      -0.08583210       0.08364917      -0.08364917 </v>
   </varray>
  </crystal>
  <varray name="positions" >
   <v>       0.75000000       0.75000000       0.74066585 </v>
   <v>       0.25000000       0.25000000       0.25933415 </v>
   <v>       0.00000000       0.00000000       0.00000000 </v>
   <v>       0.50000000       0.50000000       0.50000000 </v>
   <v>       0.20624461       0.70624461       0.29375539 </v>
   <v>       0.79375539       0.29375539       0.70624461 </v>
   <v>       0.29375539       0.79375539       0.70624461 </v>
   <v>       0.70624461       0.20624461       0.29375539 </v>
   <v>       0.25000000       0.25000000       0.82921774 </v>
   <v>       0.75000000       0.75000000       0.17078226 </v>
  </varray>
 </structure>
</modeling>
