CsPbBr3 cubic bulk                      
           1
     5.825327    5.891257   -0.086089
     5.825327    0.086089   -5.891257
    -0.000000    5.977346   -5.977346
   Cs   Pb   Br
   2   2   6
Direct configuration=     1
   0.75000000  0.75000000  0.74066585
   0.25000000  0.25000000  0.25933415
   0.00000000  0.00000000  0.00000000
   0.50000000  0.50000000  0.50000000
   0.20624461  0.70624461  0.29375539
   0.79375539  0.29375539  0.70624461
   0.29375539  0.79375539  0.70624461
   0.70624461  0.20624461  0.29375539
   0.25000000  0.25000000  0.82921774
   0.75000000  0.75000000  0.17078226
