  39  39   1   0
  0.4089970E+02  0.1166870E-08  0.1172985E-08  0.1166870E-08  0.5000000E-15
   1.0000000000000000E-004
  CAR 
 CsPbBr3 cubic bulk                      
      8.06112708    -22.32001102  301      0.49116017      1.00000000
    -22.320  0.0000E+00  0.0000E+00
    -22.219  0.0000E+00  0.0000E+00
    -22.117  0.0000E+00  0.0000E+00
    -22.016  0.0000E+00  0.0000E+00
    -21.915  0.0000E+00  0.0000E+00
    -21.814  0.0000E+00  0.0000E+00
    -21.712  0.0000E+00  0.0000E+00
    -21.611  0.0000E+00  0.0000E+00
    -21.510  0.0000E+00  0.0000E+00
    -21.409  0.0000E+00  0.0000E+00
    -21.307  0.0000E+00  0.0000E+00
    -21.206  0.0000E+00  0.0000E+00
    -21.105  0.0000E+00  0.0000E+00
    -21.003  0.0000E+00  0.0000E+00
    -20.902  0.1982E+02  0.2007E+01
    -20.801  0.3843E+02  0.7891E+01
    -20.700  0.3625E+02  0.1167E+02
    -20.598  0.0000E+00  0.1600E+02
    -20.497  0.0000E+00  0.1600E+02
    -20.396  0.0000E+00  0.1600E+02
    -20.295  0.0000E+00  0.1600E+02
    -20.193  0.0000E+00  0.1600E+02
    -20.092  0.0000E+00  0.1600E+02
    -19.991  0.0000E+00  0.1600E+02
    -19.890  0.0000E+00  0.1600E+02
    -19.788  0.0000E+00  0.1600E+02
    -19.687  0.0000E+00  0.1600E+02
    -19.586  0.0000E+00  0.1600E+02
    -19.484  0.0000E+00  0.1600E+02
    -19.383  0.0000E+00  0.1600E+02
    -19.282  0.0000E+00  0.1600E+02
    -19.181  0.0000E+00  0.1600E+02
    -19.079  0.0000E+00  0.1600E+02
    -18.978  0.0000E+00  0.1600E+02
    -18.877  0.0000E+00  0.1600E+02
    -18.776  0.0000E+00  0.1600E+02
    -18.674  0.0000E+00  0.1600E+02
    -18.573  0.0000E+00  0.1600E+02
    -18.472  0.0000E+00  0.1600E+02
    -18.370  0.0000E+00  0.1600E+02
    -18.269  0.0000E+00  0.1600E+02
    -18.168  0.0000E+00  0.1600E+02
    -18.067  0.0000E+00  0.1600E+02
    -17.965  0.0000E+00  0.1600E+02
    -17.864  0.0000E+00  0.1600E+02
    -17.763  0.0000E+00  0.1600E+02
    -17.662  0.0000E+00  0.1600E+02
    -17.560  0.0000E+00  0.1600E+02
    -17.459  0.0000E+00  0.1600E+02
    -17.358  0.0000E+00  0.1600E+02
    -17.256  0.7543E+01  0.1676E+02
    -17.155  0.0000E+00  0.1800E+02
    -17.054  0.0000E+00  0.1800E+02
    -16.953  0.0000E+00  0.1800E+02
    -16.851  0.0000E+00  0.1800E+02
    -16.750  0.0000E+00  0.1800E+02
    -16.649  0.7808E+02  0.2591E+02
    -16.548  0.9935E+02  0.3606E+02
    -16.446  0.4144E+02  0.4220E+02
    -16.345  0.1352E+03  0.5719E+02
    -16.244  0.2515E+03  0.8597E+02
    -16.143  0.7958E+02  0.9406E+02
    -16.041  0.0000E+00  0.9600E+02
    -15.940  0.0000E+00  0.9600E+02
    -15.839  0.0000E+00  0.9600E+02
    -15.737  0.0000E+00  0.9600E+02
    -15.636  0.0000E+00  0.9600E+02
    -15.535  0.0000E+00  0.9600E+02
    -15.434  0.0000E+00  0.9600E+02
    -15.332  0.0000E+00  0.9600E+02
    -15.231  0.0000E+00  0.9600E+02
    -15.130  0.0000E+00  0.9600E+02
    -15.029  0.0000E+00  0.9600E+02
    -14.927  0.0000E+00  0.9600E+02
    -14.826  0.0000E+00  0.9600E+02
    -14.725  0.0000E+00  0.9600E+02
    -14.623  0.5190E+00  0.9605E+02
    -14.522  0.0000E+00  0.9800E+02
    -14.421  0.1161E-11  0.9800E+02
    -14.320  0.2058E+02  0.1001E+03
    -14.218  0.4194E+02  0.1047E+03
    -14.117  0.3235E+02  0.1085E+03
    -14.016  0.8328E+02  0.1189E+03
    -13.915  0.5885E+02  0.1267E+03
    -13.813  0.7783E+02  0.1359E+03
    -13.712  0.3309E+02  0.1399E+03
    -13.611  0.9635E+01  0.1420E+03
    -13.509  0.0000E+00  0.1420E+03
    -13.408  0.0000E+00  0.1420E+03
    -13.307  0.0000E+00  0.1420E+03
    -13.206  0.0000E+00  0.1420E+03
    -13.104  0.0000E+00  0.1420E+03
    -13.003  0.0000E+00  0.1420E+03
    -12.902  0.0000E+00  0.1420E+03
    -12.801  0.0000E+00  0.1420E+03
    -12.699  0.0000E+00  0.1420E+03
    -12.598  0.0000E+00  0.1420E+03
    -12.497  0.0000E+00  0.1420E+03
    -12.396  0.0000E+00  0.1420E+03
    -12.294  0.0000E+00  0.1420E+03
    -12.193  0.0000E+00  0.1420E+03
    -12.092  0.0000E+00  0.1420E+03
    -11.990  0.0000E+00  0.1420E+03
    -11.889  0.0000E+00  0.1420E+03
    -11.788  0.0000E+00  0.1420E+03
    -11.687  0.0000E+00  0.1420E+03
    -11.585  0.0000E+00  0.1420E+03
    -11.484  0.0000E+00  0.1420E+03
    -11.383  0.0000E+00  0.1420E+03
    -11.282  0.0000E+00  0.1420E+03
    -11.180  0.0000E+00  0.1420E+03
    -11.079  0.0000E+00  0.1420E+03
    -10.978  0.0000E+00  0.1420E+03
    -10.876  0.0000E+00  0.1420E+03
    -10.775  0.0000E+00  0.1420E+03
    -10.674  0.0000E+00  0.1420E+03
    -10.573  0.0000E+00  0.1420E+03
    -10.471  0.0000E+00  0.1420E+03
    -10.370  0.0000E+00  0.1420E+03
    -10.269  0.0000E+00  0.1420E+03
    -10.168  0.0000E+00  0.1420E+03
    -10.066  0.0000E+00  0.1420E+03
     -9.965  0.0000E+00  0.1420E+03
     -9.864  0.0000E+00  0.1420E+03
     -9.762  0.0000E+00  0.1420E+03
     -9.661  0.0000E+00  0.1420E+03
     -9.560  0.0000E+00  0.1420E+03
     -9.459  0.0000E+00  0.1420E+03
     -9.357  0.0000E+00  0.1420E+03
     -9.256  0.0000E+00  0.1420E+03
     -9.155  0.0000E+00  0.1420E+03
     -9.054  0.0000E+00  0.1420E+03
     -8.952  0.0000E+00  0.1420E+03
     -8.851  0.0000E+00  0.1420E+03
     -8.750  0.0000E+00  0.1420E+03
     -8.648  0.0000E+00  0.1420E+03
     -8.547  0.0000E+00  0.1420E+03
     -8.446  0.0000E+00  0.1420E+03
     -8.345  0.0000E+00  0.1420E+03
     -8.243  0.1644E-14  0.1420E+03
     -8.142  0.2469E+01  0.1422E+03
     -8.041  0.1584E+01  0.1424E+03
     -7.940  0.1070E+02  0.1436E+03
     -7.838  0.6650E+01  0.1447E+03
     -7.737  0.1533E+02  0.1463E+03
     -7.636  0.1706E+02  0.1485E+03
     -7.535  0.2648E+01  0.1490E+03
     -7.433  0.2222E+02  0.1525E+03
     -7.332  0.3765E+02  0.1563E+03
     -7.231  0.1135E+03  0.1697E+03
     -7.129  0.8193E+02  0.1823E+03
     -7.028  0.1689E+03  0.2044E+03
     -6.927  0.3258E+01  0.2048E+03
     -6.826  0.4938E+01  0.2055E+03
     -6.724  0.2468E+01  0.2058E+03
     -6.623  0.2256E-05  0.2058E+03
     -6.522  0.2469E+01  0.2060E+03
     -6.421  0.0000E+00  0.2060E+03
     -6.319  0.0000E+00  0.2060E+03
     -6.218  0.0000E+00  0.2060E+03
     -6.117  0.0000E+00  0.2060E+03
     -6.015  0.0000E+00  0.2060E+03
     -5.914  0.0000E+00  0.2060E+03
     -5.813  0.0000E+00  0.2060E+03
     -5.712  0.0000E+00  0.2060E+03
     -5.610  0.0000E+00  0.2060E+03
     -5.509  0.0000E+00  0.2060E+03
     -5.408  0.0000E+00  0.2060E+03
     -5.307  0.0000E+00  0.2060E+03
     -5.205  0.0000E+00  0.2060E+03
     -5.104  0.0000E+00  0.2060E+03
     -5.003  0.0000E+00  0.2060E+03
     -4.901  0.0000E+00  0.2060E+03
     -4.800  0.0000E+00  0.2060E+03
     -4.699  0.0000E+00  0.2060E+03
     -4.598  0.0000E+00  0.2060E+03
     -4.496  0.0000E+00  0.2060E+03
     -4.395  0.0000E+00  0.2060E+03
     -4.294  0.0000E+00  0.2060E+03
     -4.193  0.0000E+00  0.2060E+03
     -4.091  0.0000E+00  0.2060E+03
     -3.990  0.0000E+00  0.2060E+03
     -3.889  0.0000E+00  0.2060E+03
     -3.788  0.0000E+00  0.2060E+03
     -3.686  0.0000E+00  0.2060E+03
     -3.585  0.0000E+00  0.2060E+03
     -3.484  0.0000E+00  0.2060E+03
     -3.382  0.4956E+01  0.2065E+03
     -3.281  0.3457E+02  0.2105E+03
     -3.180  0.3388E+02  0.2144E+03
     -3.079  0.2652E+02  0.2179E+03
     -2.977  0.9590E+01  0.2197E+03
     -2.876  0.9874E+01  0.2210E+03
     -2.775  0.0000E+00  0.2210E+03
     -2.674  0.6802E+01  0.2217E+03
     -2.572  0.2774E+02  0.2253E+03
     -2.471  0.3518E+02  0.2296E+03
     -2.370  0.2931E+02  0.2335E+03
     -2.268  0.4356E+02  0.2392E+03
     -2.167  0.2087E+02  0.2424E+03
     -2.066  0.1481E+02  0.2442E+03
     -1.965  0.4623E+02  0.2502E+03
     -1.863  0.1597E+02  0.2526E+03
     -1.762  0.3909E+02  0.2577E+03
     -1.661  0.3018E+02  0.2621E+03
     -1.560  0.5804E+02  0.2704E+03
     -1.458  0.7194E+02  0.2790E+03
     -1.357  0.1038E+03  0.2913E+03
     -1.256  0.9278E+02  0.3031E+03
     -1.154  0.7718E+02  0.3133E+03
     -1.053  0.7828E+02  0.3239E+03
     -0.952  0.2805E+02  0.3283E+03
     -0.851  0.3486E+02  0.3325E+03
     -0.749  0.1602E+02  0.3346E+03
     -0.648  0.9555E+01  0.3357E+03
     -0.547  0.9714E+01  0.3370E+03
     -0.446  0.8475E+01  0.3386E+03
     -0.344  0.3770E+01  0.3394E+03
     -0.243  0.7722E+01  0.3405E+03
     -0.142  0.2469E+01  0.3410E+03
     -0.041  0.2419E+01  0.3412E+03
      0.061  0.1251E+02  0.3425E+03
      0.162  0.2501E+01  0.3430E+03
      0.263  0.4399E+01  0.3437E+03
      0.365  0.0000E+00  0.3438E+03
      0.466  0.2461E+01  0.3440E+03
      0.567  0.0000E+00  0.3440E+03
      0.668  0.0000E+00  0.3440E+03
      0.770  0.0000E+00  0.3440E+03
      0.871  0.0000E+00  0.3440E+03
      0.972  0.0000E+00  0.3440E+03
      1.073  0.0000E+00  0.3440E+03
      1.175  0.0000E+00  0.3440E+03
      1.276  0.0000E+00  0.3440E+03
      1.377  0.0000E+00  0.3440E+03
      1.479  0.0000E+00  0.3440E+03
      1.580  0.0000E+00  0.3440E+03
      1.681  0.0000E+00  0.3440E+03
      1.782  0.0000E+00  0.3440E+03
      1.884  0.0000E+00  0.3440E+03
      1.985  0.0000E+00  0.3440E+03
      2.086  0.0000E+00  0.3440E+03
      2.187  0.0000E+00  0.3440E+03
      2.289  0.0000E+00  0.3440E+03
      2.390  0.0000E+00  0.3440E+03
      2.491  0.0000E+00  0.3440E+03
      2.593  0.2398E+01  0.3442E+03
      2.694  0.7104E+01  0.3450E+03
      2.795  0.9873E+01  0.3462E+03
      2.896  0.5068E+01  0.3470E+03
      2.998  0.1381E+02  0.3486E+03
      3.099  0.9380E+01  0.3502E+03
      3.200  0.1507E+02  0.3523E+03
      3.301  0.1773E+02  0.3545E+03
      3.403  0.1187E+02  0.3562E+03
      3.504  0.1132E+02  0.3574E+03
      3.605  0.4937E+01  0.3580E+03
      3.706  0.0000E+00  0.3580E+03
      3.808  0.0000E+00  0.3580E+03
      3.909  0.0000E+00  0.3580E+03
      4.010  0.3241E-09  0.3580E+03
      4.112  0.1334E+02  0.3594E+03
      4.213  0.7404E+01  0.3602E+03
      4.314  0.1644E+02  0.3619E+03
      4.415  0.2734E+02  0.3650E+03
      4.517  0.3060E+02  0.3683E+03
      4.618  0.2349E+02  0.3716E+03
      4.719  0.2115E+02  0.3746E+03
      4.820  0.2087E+02  0.3771E+03
      4.922  0.2155E+02  0.3802E+03
      5.023  0.0000E+00  0.3802E+03
      5.124  0.0000E+00  0.3802E+03
      5.226  0.1907E-04  0.3803E+03
      5.327  0.4937E+01  0.3807E+03
      5.428  0.5707E+01  0.3813E+03
      5.529  0.9874E+01  0.3825E+03
      5.631  0.9560E+01  0.3835E+03
      5.732  0.1756E+02  0.3855E+03
      5.833  0.1256E+02  0.3870E+03
      5.934  0.1902E+02  0.3897E+03
      6.036  0.2682E+02  0.3930E+03
      6.137  0.3159E+02  0.3962E+03
      6.238  0.2401E+02  0.3997E+03
      6.340  0.3024E+02  0.4038E+03
      6.441  0.3454E+02  0.4085E+03
      6.542  0.2296E+02  0.4116E+03
      6.643  0.3089E+02  0.4154E+03
      6.745  0.2469E+01  0.4160E+03
      6.846  0.0000E+00  0.4160E+03
      6.947  0.0000E+00  0.4160E+03
      7.048  0.0000E+00  0.4160E+03
      7.150  0.0000E+00  0.4160E+03
      7.251  0.0000E+00  0.4160E+03
      7.352  0.0000E+00  0.4160E+03
      7.454  0.0000E+00  0.4160E+03
      7.555  0.0000E+00  0.4160E+03
      7.656  0.0000E+00  0.4160E+03
      7.757  0.0000E+00  0.4160E+03
      7.859  0.0000E+00  0.4160E+03
      7.960  0.0000E+00  0.4160E+03
      8.061  0.0000E+00  0.4160E+03
      8.06112708    -22.32001102  301      0.49116017      1.00000000
    -22.320  0.0000E+00  0.0000E+00  0.0000E+00
    -22.219  0.0000E+00  0.0000E+00  0.0000E+00
    -22.117  0.0000E+00  0.0000E+00  0.0000E+00
    -22.016  0.0000E+00  0.0000E+00  0.0000E+00
    -21.915  0.0000E+00  0.0000E+00  0.0000E+00
    -21.814  0.0000E+00  0.0000E+00  0.0000E+00
    -21.712  0.0000E+00  0.0000E+00  0.0000E+00
    -21.611  0.0000E+00  0.0000E+00  0.0000E+00
    -21.510  0.0000E+00  0.0000E+00  0.0000E+00
    -21.409  0.0000E+00  0.0000E+00  0.0000E+00
    -21.307  0.0000E+00  0.0000E+00  0.0000E+00
    -21.206  0.0000E+00  0.0000E+00  0.0000E+00
    -21.105  0.0000E+00  0.0000E+00  0.0000E+00
    -21.003  0.0000E+00  0.0000E+00  0.0000E+00
    -20.902  0.3857E-06  0.2544E-08  0.1787E-09
    -20.801  0.1004E-02  0.2502E-06  0.3629E-07
    -20.700  0.3927E+01  0.6235E-06  0.7247E-06
    -20.598  0.0000E+00  0.0000E+00  0.0000E+00
    -20.497  0.0000E+00  0.0000E+00  0.0000E+00
    -20.396  0.0000E+00  0.0000E+00  0.0000E+00
    -20.295  0.0000E+00  0.0000E+00  0.0000E+00
    -20.193  0.0000E+00  0.0000E+00  0.0000E+00
    -20.092  0.0000E+00  0.0000E+00  0.0000E+00
    -19.991  0.0000E+00  0.0000E+00  0.0000E+00
    -19.890  0.0000E+00  0.0000E+00  0.0000E+00
    -19.788  0.0000E+00  0.0000E+00  0.0000E+00
    -19.687  0.0000E+00  0.0000E+00  0.0000E+00
    -19.586  0.0000E+00  0.0000E+00  0.0000E+00
    -19.484  0.0000E+00  0.0000E+00  0.0000E+00
    -19.383  0.0000E+00  0.0000E+00  0.0000E+00
    -19.282  0.0000E+00  0.0000E+00  0.0000E+00
    -19.181  0.0000E+00  0.0000E+00  0.0000E+00
    -19.079  0.0000E+00  0.0000E+00  0.0000E+00
    -18.978  0.0000E+00  0.0000E+00  0.0000E+00
    -18.877  0.0000E+00  0.0000E+00  0.0000E+00
    -18.776  0.0000E+00  0.0000E+00  0.0000E+00
    -18.674  0.0000E+00  0.0000E+00  0.0000E+00
    -18.573  0.0000E+00  0.0000E+00  0.0000E+00
    -18.472  0.0000E+00  0.0000E+00  0.0000E+00
    -18.370  0.0000E+00  0.0000E+00  0.0000E+00
    -18.269  0.0000E+00  0.0000E+00  0.0000E+00
    -18.168  0.0000E+00  0.0000E+00  0.0000E+00
    -18.067  0.0000E+00  0.0000E+00  0.0000E+00
    -17.965  0.0000E+00  0.0000E+00  0.0000E+00
    -17.864  0.0000E+00  0.0000E+00  0.0000E+00
    -17.763  0.0000E+00  0.0000E+00  0.0000E+00
    -17.662  0.0000E+00  0.0000E+00  0.0000E+00
    -17.560  0.0000E+00  0.0000E+00  0.0000E+00
    -17.459  0.0000E+00  0.0000E+00  0.0000E+00
    -17.358  0.0000E+00  0.0000E+00  0.0000E+00
    -17.256  0.4269E-07  0.3705E-07  0.9832E-08
    -17.155  0.0000E+00  0.0000E+00  0.0000E+00
    -17.054  0.0000E+00  0.0000E+00  0.0000E+00
    -16.953  0.0000E+00  0.0000E+00  0.0000E+00
    -16.851  0.0000E+00  0.0000E+00  0.0000E+00
    -16.750  0.0000E+00  0.0000E+00  0.0000E+00
    -16.649  0.4815E-04  0.2336E-04  0.3678E-05
    -16.548  0.3839E-05  0.1474E-05  0.1595E-06
    -16.446  0.2759E-04  0.1440E-04  0.2728E-05
    -16.345  0.3402E-04  0.6118E-04  0.1263E-04
    -16.244  0.1054E-03  0.7063E-04  0.9862E-05
    -16.143  0.2665E-04  0.1498E-04  0.1812E-05
    -16.041  0.0000E+00  0.0000E+00  0.0000E+00
    -15.940  0.0000E+00  0.0000E+00  0.0000E+00
    -15.839  0.0000E+00  0.0000E+00  0.0000E+00
    -15.737  0.0000E+00  0.0000E+00  0.0000E+00
    -15.636  0.0000E+00  0.0000E+00  0.0000E+00
    -15.535  0.0000E+00  0.0000E+00  0.0000E+00
    -15.434  0.0000E+00  0.0000E+00  0.0000E+00
    -15.332  0.0000E+00  0.0000E+00  0.0000E+00
    -15.231  0.0000E+00  0.0000E+00  0.0000E+00
    -15.130  0.0000E+00  0.0000E+00  0.0000E+00
    -15.029  0.0000E+00  0.0000E+00  0.0000E+00
    -14.927  0.0000E+00  0.0000E+00  0.0000E+00
    -14.826  0.0000E+00  0.0000E+00  0.0000E+00
    -14.725  0.0000E+00  0.0000E+00  0.0000E+00
    -14.623  0.7656E-05  0.5488E-05  0.2217E-06
    -14.522  0.0000E+00  0.0000E+00  0.0000E+00
    -14.421  0.1895E-15  0.5012E-17  0.4503E-18
    -14.320  0.1255E-02  0.9335E-03  0.4804E-04
    -14.218  0.3688E-02  0.3426E-02  0.1442E-03
    -14.117  0.5500E-03  0.2710E-02  0.1186E-03
    -14.016  0.1792E-02  0.5765E-02  0.3675E-03
    -13.915  0.1732E-02  0.3711E-02  0.3938E-03
    -13.813  0.1645E-02  0.4463E-02  0.4898E-03
    -13.712  0.5556E-03  0.1288E-02  0.2385E-03
    -13.611  0.8232E-05  0.1179E-03  0.3152E-04
    -13.509  0.0000E+00  0.0000E+00  0.0000E+00
    -13.408  0.0000E+00  0.0000E+00  0.0000E+00
    -13.307  0.0000E+00  0.0000E+00  0.0000E+00
    -13.206  0.0000E+00  0.0000E+00  0.0000E+00
    -13.104  0.0000E+00  0.0000E+00  0.0000E+00
    -13.003  0.0000E+00  0.0000E+00  0.0000E+00
    -12.902  0.0000E+00  0.0000E+00  0.0000E+00
    -12.801  0.0000E+00  0.0000E+00  0.0000E+00
    -12.699  0.0000E+00  0.0000E+00  0.0000E+00
    -12.598  0.0000E+00  0.0000E+00  0.0000E+00
    -12.497  0.0000E+00  0.0000E+00  0.0000E+00
    -12.396  0.0000E+00  0.0000E+00  0.0000E+00
    -12.294  0.0000E+00  0.0000E+00  0.0000E+00
    -12.193  0.0000E+00  0.0000E+00  0.0000E+00
    -12.092  0.0000E+00  0.0000E+00  0.0000E+00
    -11.990  0.0000E+00  0.0000E+00  0.0000E+00
    -11.889  0.0000E+00  0.0000E+00  0.0000E+00
    -11.788  0.0000E+00  0.0000E+00  0.0000E+00
    -11.687  0.0000E+00  0.0000E+00  0.0000E+00
    -11.585  0.0000E+00  0.0000E+00  0.0000E+00
    -11.484  0.0000E+00  0.0000E+00  0.0000E+00
    -11.383  0.0000E+00  0.0000E+00  0.0000E+00
    -11.282  0.0000E+00  0.0000E+00  0.0000E+00
    -11.180  0.0000E+00  0.0000E+00  0.0000E+00
    -11.079  0.0000E+00  0.0000E+00  0.0000E+00
    -10.978  0.0000E+00  0.0000E+00  0.0000E+00
    -10.876  0.0000E+00  0.0000E+00  0.0000E+00
    -10.775  0.0000E+00  0.0000E+00  0.0000E+00
    -10.674  0.0000E+00  0.0000E+00  0.0000E+00
    -10.573  0.0000E+00  0.0000E+00  0.0000E+00
    -10.471  0.0000E+00  0.0000E+00  0.0000E+00
    -10.370  0.0000E+00  0.0000E+00  0.0000E+00
    -10.269  0.0000E+00  0.0000E+00  0.0000E+00
    -10.168  0.0000E+00  0.0000E+00  0.0000E+00
    -10.066  0.0000E+00  0.0000E+00  0.0000E+00
     -9.965  0.0000E+00  0.0000E+00  0.0000E+00
     -9.864  0.0000E+00  0.0000E+00  0.0000E+00
     -9.762  0.0000E+00  0.0000E+00  0.0000E+00
     -9.661  0.0000E+00  0.0000E+00  0.0000E+00
     -9.560  0.0000E+00  0.0000E+00  0.0000E+00
     -9.459  0.0000E+00  0.0000E+00  0.0000E+00
     -9.357  0.0000E+00  0.0000E+00  0.0000E+00
     -9.256  0.0000E+00  0.0000E+00  0.0000E+00
     -9.155  0.0000E+00  0.0000E+00  0.0000E+00
     -9.054  0.0000E+00  0.0000E+00  0.0000E+00
     -8.952  0.0000E+00  0.0000E+00  0.0000E+00
     -8.851  0.0000E+00  0.0000E+00  0.0000E+00
     -8.750  0.0000E+00  0.0000E+00  0.0000E+00
     -8.648  0.0000E+00  0.0000E+00  0.0000E+00
     -8.547  0.0000E+00  0.0000E+00  0.0000E+00
     -8.446  0.0000E+00  0.0000E+00  0.0000E+00
     -8.345  0.0000E+00  0.0000E+00  0.0000E+00
     -8.243  0.2140E-22  0.6005E-19  0.7059E-20
     -8.142  0.3212E-07  0.9015E-04  0.1060E-04
     -8.041  0.4719E-06  0.8366E-03  0.3984E-05
     -7.940  0.2569E-06  0.3866E-02  0.3472E-04
     -7.838  0.4760E-05  0.3518E-02  0.1153E-04
     -7.737  0.8508E-05  0.1955E-01  0.3334E-04
     -7.636  0.1674E-04  0.2384E-01  0.4905E-04
     -7.535  0.8971E-06  0.1072E-01  0.5055E-05
     -7.433  0.1927E-04  0.8812E-01  0.7195E-04
     -7.332  0.1463E-04  0.3597E-01  0.3620E-04
     -7.231  0.5859E-04  0.4958E+00  0.6245E-04
     -7.129  0.3198E-04  0.3043E+01  0.5725E-04
     -7.028  0.3651E-04  0.3364E+02  0.6135E-04
     -6.927  0.2401E-05  0.5358E-01  0.1233E-04
     -6.826  0.1907E-04  0.3652E-01  0.1772E-04
     -6.724  0.2862E-06  0.1403E-01  0.3599E-05
     -6.623  0.5284E-11  0.5842E-08  0.1403E-11
     -6.522  0.5781E-05  0.6392E-02  0.1535E-05
     -6.421  0.0000E+00  0.0000E+00  0.0000E+00
     -6.319  0.0000E+00  0.0000E+00  0.0000E+00
     -6.218  0.0000E+00  0.0000E+00  0.0000E+00
     -6.117  0.0000E+00  0.0000E+00  0.0000E+00
     -6.015  0.0000E+00  0.0000E+00  0.0000E+00
     -5.914  0.0000E+00  0.0000E+00  0.0000E+00
     -5.813  0.0000E+00  0.0000E+00  0.0000E+00
     -5.712  0.0000E+00  0.0000E+00  0.0000E+00
     -5.610  0.0000E+00  0.0000E+00  0.0000E+00
     -5.509  0.0000E+00  0.0000E+00  0.0000E+00
     -5.408  0.0000E+00  0.0000E+00  0.0000E+00
     -5.307  0.0000E+00  0.0000E+00  0.0000E+00
     -5.205  0.0000E+00  0.0000E+00  0.0000E+00
     -5.104  0.0000E+00  0.0000E+00  0.0000E+00
     -5.003  0.0000E+00  0.0000E+00  0.0000E+00
     -4.901  0.0000E+00  0.0000E+00  0.0000E+00
     -4.800  0.0000E+00  0.0000E+00  0.0000E+00
     -4.699  0.0000E+00  0.0000E+00  0.0000E+00
     -4.598  0.0000E+00  0.0000E+00  0.0000E+00
     -4.496  0.0000E+00  0.0000E+00  0.0000E+00
     -4.395  0.0000E+00  0.0000E+00  0.0000E+00
     -4.294  0.0000E+00  0.0000E+00  0.0000E+00
     -4.193  0.0000E+00  0.0000E+00  0.0000E+00
     -4.091  0.0000E+00  0.0000E+00  0.0000E+00
     -3.990  0.0000E+00  0.0000E+00  0.0000E+00
     -3.889  0.0000E+00  0.0000E+00  0.0000E+00
     -3.788  0.0000E+00  0.0000E+00  0.0000E+00
     -3.686  0.0000E+00  0.0000E+00  0.0000E+00
     -3.585  0.0000E+00  0.0000E+00  0.0000E+00
     -3.484  0.0000E+00  0.0000E+00  0.0000E+00
     -3.382  0.2856E-04  0.2283E-02  0.7436E-04
     -3.281  0.1498E-03  0.1269E-01  0.1030E-02
     -3.180  0.5759E-03  0.2281E-01  0.1581E-02
     -3.079  0.1887E-03  0.1825E-01  0.1781E-02
     -2.977  0.1064E-04  0.5121E-02  0.2976E-03
     -2.876  0.1955E-04  0.3057E-02  0.2128E-03
     -2.775  0.0000E+00  0.0000E+00  0.0000E+00
     -2.674  0.5732E-03  0.3980E-02  0.2711E-03
     -2.572  0.1304E-02  0.2610E-01  0.1181E-02
     -2.471  0.1880E-02  0.2628E-01  0.1542E-02
     -2.370  0.1423E-02  0.1285E-01  0.2185E-02
     -2.268  0.3380E-02  0.2602E-01  0.3436E-02
     -2.167  0.2384E-02  0.9145E-02  0.2368E-02
     -2.066  0.5650E-02  0.4078E-02  0.1633E-02
     -1.965  0.1900E-01  0.4503E-01  0.4554E-02
     -1.863  0.6499E-02  0.2462E-01  0.1356E-02
     -1.762  0.2880E-02  0.8111E-01  0.4837E-02
     -1.661  0.1880E-02  0.6228E-01  0.4604E-02
     -1.560  0.3256E-02  0.1190E+00  0.1299E-01
     -1.458  0.3312E-02  0.7417E-01  0.1431E-01
     -1.357  0.5077E-02  0.8821E-01  0.2225E-01
     -1.256  0.5329E-02  0.7745E-01  0.1626E-01
     -1.154  0.2511E-02  0.5033E-01  0.1429E-01
     -1.053  0.9967E-03  0.8409E-01  0.1192E-01
     -0.952  0.7527E-03  0.2579E-01  0.4749E-02
     -0.851  0.8680E-03  0.3052E-01  0.6621E-02
     -0.749  0.6557E-03  0.7162E-02  0.1134E-02
     -0.648  0.3952E-03  0.4216E-02  0.4079E-03
     -0.547  0.3900E-04  0.2045E-02  0.6230E-03
     -0.446  0.1590E-03  0.1552E-02  0.6997E-03
     -0.344  0.2108E-04  0.4375E-03  0.1413E-03
     -0.243  0.6011E-04  0.2510E-02  0.4483E-03
     -0.142  0.1318E-04  0.4817E-03  0.1183E-03
     -0.041  0.3809E-06  0.4998E-03  0.1953E-03
      0.061  0.5688E-04  0.1603E-02  0.7422E-03
      0.162  0.1137E-05  0.1824E-03  0.1078E-03
      0.263  0.4752E-04  0.2162E-03  0.2754E-03
      0.365  0.0000E+00  0.0000E+00  0.0000E+00
      0.466  0.1270E-04  0.2766E-04  0.1323E-03
      0.567  0.0000E+00  0.0000E+00  0.0000E+00
      0.668  0.0000E+00  0.0000E+00  0.0000E+00
      0.770  0.0000E+00  0.0000E+00  0.0000E+00
      0.871  0.0000E+00  0.0000E+00  0.0000E+00
      0.972  0.0000E+00  0.0000E+00  0.0000E+00
      1.073  0.0000E+00  0.0000E+00  0.0000E+00
      1.175  0.0000E+00  0.0000E+00  0.0000E+00
      1.276  0.0000E+00  0.0000E+00  0.0000E+00
      1.377  0.0000E+00  0.0000E+00  0.0000E+00
      1.479  0.0000E+00  0.0000E+00  0.0000E+00
      1.580  0.0000E+00  0.0000E+00  0.0000E+00
      1.681  0.0000E+00  0.0000E+00  0.0000E+00
      1.782  0.0000E+00  0.0000E+00  0.0000E+00
      1.884  0.0000E+00  0.0000E+00  0.0000E+00
      1.985  0.0000E+00  0.0000E+00  0.0000E+00
      2.086  0.0000E+00  0.0000E+00  0.0000E+00
      2.187  0.0000E+00  0.0000E+00  0.0000E+00
      2.289  0.0000E+00  0.0000E+00  0.0000E+00
      2.390  0.0000E+00  0.0000E+00  0.0000E+00
      2.491  0.0000E+00  0.0000E+00  0.0000E+00
      2.593  0.1270E-04  0.3086E-03  0.4866E-03
      2.694  0.7330E-04  0.8273E-03  0.1500E-02
      2.795  0.1121E-03  0.9198E-03  0.2033E-02
      2.896  0.1885E-03  0.8144E-03  0.1026E-02
      2.998  0.5794E-03  0.1754E-02  0.3558E-02
      3.099  0.4202E-03  0.1344E-02  0.1931E-02
      3.200  0.3757E-03  0.2101E-02  0.2827E-02
      3.301  0.2157E-03  0.1520E-02  0.3037E-02
      3.403  0.3301E-03  0.1866E-02  0.1735E-02
      3.504  0.5068E-04  0.1769E-02  0.2808E-02
      3.605  0.1331E-03  0.6085E-03  0.7698E-03
      3.706  0.0000E+00  0.0000E+00  0.0000E+00
      3.808  0.0000E+00  0.0000E+00  0.0000E+00
      3.909  0.0000E+00  0.0000E+00  0.0000E+00
      4.010  0.2218E-14  0.6875E-13  0.1414E-12
      4.112  0.2786E-03  0.2180E-02  0.4004E-02
      4.213  0.2830E-04  0.7660E-03  0.3210E-02
      4.314  0.4245E-03  0.2705E-02  0.1173E-01
      4.415  0.2203E-02  0.4036E-02  0.1352E-01
      4.517  0.1495E-02  0.6385E-02  0.1365E-01
      4.618  0.2007E-02  0.4537E-02  0.7077E-02
      4.719  0.3808E-02  0.4951E-02  0.6277E-02
      4.820  0.8853E-02  0.5720E-02  0.8737E-02
      4.922  0.5948E-02  0.4349E-02  0.1086E-01
      5.023  0.0000E+00  0.0000E+00  0.0000E+00
      5.124  0.0000E+00  0.0000E+00  0.0000E+00
      5.226  0.3012E-07  0.1277E-07  0.5392E-08
      5.327  0.5833E-02  0.4190E-02  0.1300E-02
      5.428  0.3522E-02  0.3195E-02  0.2517E-02
      5.529  0.1292E-01  0.2851E-02  0.1056E-01
      5.631  0.1438E-01  0.1335E-02  0.8231E-02
      5.732  0.6522E-02  0.4270E-02  0.1733E-01
      5.833  0.9862E-02  0.3195E-02  0.1902E-01
      5.934  0.2018E-01  0.4622E-02  0.4328E-01
      6.036  0.9514E-02  0.1196E-01  0.8946E-01
      6.137  0.7012E-01  0.2095E-01  0.1244E+00
      6.238  0.1574E-01  0.1078E-01  0.1627E+00
      6.340  0.4279E-01  0.1678E-01  0.3198E+00
      6.441  0.2347E-01  0.1547E-01  0.3547E+00
      6.542  0.1393E-01  0.1699E-01  0.2801E+00
      6.643  0.1888E-01  0.1893E-01  0.4334E+00
      6.745  0.2898E-03  0.6096E-02  0.4243E-01
      6.846  0.0000E+00  0.0000E+00  0.0000E+00
      6.947  0.0000E+00  0.0000E+00  0.0000E+00
      7.048  0.0000E+00  0.0000E+00  0.0000E+00
      7.150  0.0000E+00  0.0000E+00  0.0000E+00
      7.251  0.0000E+00  0.0000E+00  0.0000E+00
      7.352  0.0000E+00  0.0000E+00  0.0000E+00
      7.454  0.0000E+00  0.0000E+00  0.0000E+00
      7.555  0.0000E+00  0.0000E+00  0.0000E+00
      7.656  0.0000E+00  0.0000E+00  0.0000E+00
      7.757  0.0000E+00  0.0000E+00  0.0000E+00
      7.859  0.0000E+00  0.0000E+00  0.0000E+00
      7.960  0.0000E+00  0.0000E+00  0.0000E+00
      8.061  0.0000E+00  0.0000E+00  0.0000E+00
      8.06112708    -22.32001102  301      0.49116017      1.00000000
    -22.320  0.0000E+00  0.0000E+00  0.0000E+00
    -22.219  0.0000E+00  0.0000E+00  0.0000E+00
    -22.117  0.0000E+00  0.0000E+00  0.0000E+00
    -22.016  0.0000E+00  0.0000E+00  0.0000E+00
    -21.915  0.0000E+00  0.0000E+00  0.0000E+00
    -21.814  0.0000E+00  0.0000E+00  0.0000E+00
    -21.712  0.0000E+00  0.0000E+00  0.0000E+00
    -21.611  0.0000E+00  0.0000E+00  0.0000E+00
    -21.510  0.0000E+00  0.0000E+00  0.0000E+00
    -21.409  0.0000E+00  0.0000E+00  0.0000E+00
    -21.307  0.0000E+00  0.0000E+00  0.0000E+00
    -21.206  0.0000E+00  0.0000E+00  0.0000E+00
    -21.105  0.0000E+00  0.0000E+00  0.0000E+00
    -21.003  0.0000E+00  0.0000E+00  0.0000E+00
    -20.902  0.1046E-05  0.2210E-08  0.1973E-09
    -20.801  0.3835E-03  0.8119E-07  0.1144E-07
    -20.700  0.1459E+02  0.1027E-04  0.4596E-05
    -20.598  0.0000E+00  0.0000E+00  0.0000E+00
    -20.497  0.0000E+00  0.0000E+00  0.0000E+00
    -20.396  0.0000E+00  0.0000E+00  0.0000E+00
    -20.295  0.0000E+00  0.0000E+00  0.0000E+00
    -20.193  0.0000E+00  0.0000E+00  0.0000E+00
    -20.092  0.0000E+00  0.0000E+00  0.0000E+00
    -19.991  0.0000E+00  0.0000E+00  0.0000E+00
    -19.890  0.0000E+00  0.0000E+00  0.0000E+00
    -19.788  0.0000E+00  0.0000E+00  0.0000E+00
    -19.687  0.0000E+00  0.0000E+00  0.0000E+00
    -19.586  0.0000E+00  0.0000E+00  0.0000E+00
    -19.484  0.0000E+00  0.0000E+00  0.0000E+00
    -19.383  0.0000E+00  0.0000E+00  0.0000E+00
    -19.282  0.0000E+00  0.0000E+00  0.0000E+00
    -19.181  0.0000E+00  0.0000E+00  0.0000E+00
    -19.079  0.0000E+00  0.0000E+00  0.0000E+00
    -18.978  0.0000E+00  0.0000E+00  0.0000E+00
    -18.877  0.0000E+00  0.0000E+00  0.0000E+00
    -18.776  0.0000E+00  0.0000E+00  0.0000E+00
    -18.674  0.0000E+00  0.0000E+00  0.0000E+00
    -18.573  0.0000E+00  0.0000E+00  0.0000E+00
    -18.472  0.0000E+00  0.0000E+00  0.0000E+00
    -18.370  0.0000E+00  0.0000E+00  0.0000E+00
    -18.269  0.0000E+00  0.0000E+00  0.0000E+00
    -18.168  0.0000E+00  0.0000E+00  0.0000E+00
    -18.067  0.0000E+00  0.0000E+00  0.0000E+00
    -17.965  0.0000E+00  0.0000E+00  0.0000E+00
    -17.864  0.0000E+00  0.0000E+00  0.0000E+00
    -17.763  0.0000E+00  0.0000E+00  0.0000E+00
    -17.662  0.0000E+00  0.0000E+00  0.0000E+00
    -17.560  0.0000E+00  0.0000E+00  0.0000E+00
    -17.459  0.0000E+00  0.0000E+00  0.0000E+00
    -17.358  0.0000E+00  0.0000E+00  0.0000E+00
    -17.256  0.5349E-06  0.2328E-06  0.4681E-07
    -17.155  0.0000E+00  0.0000E+00  0.0000E+00
    -17.054  0.0000E+00  0.0000E+00  0.0000E+00
    -16.953  0.0000E+00  0.0000E+00  0.0000E+00
    -16.851  0.0000E+00  0.0000E+00  0.0000E+00
    -16.750  0.0000E+00  0.0000E+00  0.0000E+00
    -16.649  0.3118E-04  0.2970E-04  0.7027E-05
    -16.548  0.2337E-04  0.1113E-04  0.1541E-05
    -16.446  0.2149E-04  0.2576E-04  0.5587E-05
    -16.345  0.6525E-04  0.4471E-04  0.6385E-05
    -16.244  0.3377E-04  0.3074E-04  0.4532E-05
    -16.143  0.7106E-06  0.5865E-06  0.9444E-07
    -16.041  0.0000E+00  0.0000E+00  0.0000E+00
    -15.940  0.0000E+00  0.0000E+00  0.0000E+00
    -15.839  0.0000E+00  0.0000E+00  0.0000E+00
    -15.737  0.0000E+00  0.0000E+00  0.0000E+00
    -15.636  0.0000E+00  0.0000E+00  0.0000E+00
    -15.535  0.0000E+00  0.0000E+00  0.0000E+00
    -15.434  0.0000E+00  0.0000E+00  0.0000E+00
    -15.332  0.0000E+00  0.0000E+00  0.0000E+00
    -15.231  0.0000E+00  0.0000E+00  0.0000E+00
    -15.130  0.0000E+00  0.0000E+00  0.0000E+00
    -15.029  0.0000E+00  0.0000E+00  0.0000E+00
    -14.927  0.0000E+00  0.0000E+00  0.0000E+00
    -14.826  0.0000E+00  0.0000E+00  0.0000E+00
    -14.725  0.0000E+00  0.0000E+00  0.0000E+00
    -14.623  0.9283E-05  0.5759E-05  0.3025E-06
    -14.522  0.0000E+00  0.0000E+00  0.0000E+00
    -14.421  0.2411E-15  0.2659E-16  0.6430E-18
    -14.320  0.3362E-02  0.8864E-03  0.2259E-04
    -14.218  0.1756E-02  0.4106E-02  0.9063E-04
    -14.117  0.5204E-03  0.2684E-02  0.1304E-03
    -14.016  0.1788E-02  0.5191E-02  0.4739E-03
    -13.915  0.4351E-03  0.1686E-02  0.2930E-03
    -13.813  0.1299E-02  0.3288E-02  0.4022E-03
    -13.712  0.5874E-03  0.1215E-02  0.1232E-03
    -13.611  0.3645E-03  0.7856E-03  0.6289E-04
    -13.509  0.0000E+00  0.0000E+00  0.0000E+00
    -13.408  0.0000E+00  0.0000E+00  0.0000E+00
    -13.307  0.0000E+00  0.0000E+00  0.0000E+00